/*--------------------------------*- C++ -*----------------------------------*\
  =========                 |
  \\      /  F ield         | OpenFOAM: The Open Source CFD Toolbox
   \\    /   O peration     | Website:  https://openfoam.org
    \\  /    A nd           | Version:  6
     \\/     M anipulation  |
\*---------------------------------------------------------------------------*/
FoamFile
{
    version     2.0;
    format      ascii;
    class       volScalarField;
    location    "3900";
    object      nut;
}
// * * * * * * * * * * * * * * * * * * * * * * * * * * * * * * * * * * * * * //

dimensions      [0 2 -1 0 0 0 0];

internalField   nonuniform List<scalar> 
662
(
0.000977264
0.00105345
0.00106904
0.00111887
0.00116537
0.00120936
0.00125282
0.00129818
0.00134425
0.00138714
0.00142133
0.00143517
0.00141006
0.00132286
0.00108091
0.000480991
0.000565243
0.000636393
0.000654373
0.000639652
0.000598132
0.000553116
0.000512804
0.000477773
0.000447251
0.000420542
0.000397201
0.000376435
0.000357492
0.000339525
0.000321577
0.00031306
0.000289662
0.00134664
0.00278571
0.00247607
0.00283656
0.00317079
0.00352134
0.00386481
0.00415926
0.00444138
0.0047805
0.00516187
0.00553219
0.00579386
0.00580073
0.00506766
0.00128614
0.00105782
0.000864172
0.000483064
0.00111782
0.00160667
0.0019837
0.00209867
0.0015496
0.00131315
0.00115135
0.00103125
0.00093883
0.000864991
0.000799372
0.000738354
0.000678522
0.000625773
0.000579678
0.000718508
0.000390951
0.00167961
0.00388328
0.00281863
0.0036292
0.00394593
0.00414458
0.00426021
0.00433498
0.00444951
0.00468556
0.00506697
0.00558995
0.00615387
0.00653968
0.00641262
0.00527331
0.00412076
0.00102059
0.000771958
0.00129633
0.00183656
0.00236732
0.00250798
0.000806594
0.000706397
0.000623632
0.000556856
0.000503085
0.000459568
0.000424249
0.000395607
0.00037314
0.000410829
0.000471225
0.000843176
0.000466529
0.00201974
0.00536371
0.00280313
0.00374235
0.00409302
0.00409406
0.0039413
0.0037819
0.00374699
0.00388895
0.00425181
0.00488597
0.00565505
0.00624494
0.00646259
0.00625467
0.005456
0.00300247
0.0011918
0.00155982
0.00212761
0.00278353
0.00332848
0.00331382
0.000901304
0.000823538
0.000771603
0.000734211
0.000703216
0.000672298
0.000642297
0.000610667
0.000573628
0.00054147
0.000536694
0.00101802
0.000537087
0.0023579
0.00703119
0.00362366
0.00340563
0.00397019
0.00402262
0.00377285
0.0034388
0.00329059
0.00337032
0.00370956
0.00441961
0.00527631
0.00583132
0.00608747
0.00610634
0.00582942
0.00483817
0.00448027
0.0044383
0.00462069
0.00484405
0.00495778
0.00482003
0.00406183
0.00368871
0.00348948
0.00334913
0.00320754
0.0030275
0.00271857
0.00231556
0.00185665
0.00141469
0.00106143
0.000993821
0.000911076
0.000723949
0.000758395
0.000822134
0.00274216
0.00855396
0.00549304
0.00356662
0.00343037
0.00360588
0.00364469
0.0033895
0.00318671
0.00321815
0.00354697
0.00426094
0.00512984
0.00562146
0.00578756
0.00577554
0.00575857
0.00570829
0.00589395
0.00611027
0.00621935
0.00616711
0.0059636
0.00563151
0.00519917
0.00485754
0.00459725
0.00437261
0.00415609
0.00393236
0.00366414
0.00328873
0.00280896
0.00225984
0.00174659
0.00124734
0.00106207
0.00095592
0.00120494
0.000852887
0.00128894
0.00403131
0.0052041
0.00446989
0.00371003
0.00339761
0.00336705
0.00337164
0.00325589
0.00319503
0.00341384
0.00409265
0.00526562
0.00564239
0.00571735
0.00569016
0.00590875
0.00636287
0.00677019
0.00694365
0.00685547
0.00655424
0.00611392
0.0056054
0.00511262
0.00472691
0.00444043
0.0042096
0.00400909
0.00383171
0.00367693
0.00350477
0.00319003
0.00274723
0.00228513
0.00182905
0.00154428
0.00142696
0.00134721
0.00100416
0.00101668
0.00205083
0.00294295
0.00356255
0.0038184
0.00374319
0.00356586
0.00340943
0.00323365
0.00320538
0.00362384
0.00447619
0.00555576
0.00580504
0.00582376
0.0059226
0.00639497
0.00678444
0.00695475
0.00686619
0.00652906
0.00601023
0.00540475
0.00481677
0.00434197
0.00401248
0.00378722
0.00362306
0.00350281
0.00342601
0.00339907
0.00342029
0.0034043
0.00314746
0.0029014
0.00277316
0.00284242
0.00294714
0.0036039
0.00152912
0.000270076
0.00132036
0.00213542
0.00264792
0.00287368
0.00292366
0.00299362
0.00339891
0.00426452
0.00516675
0.0058319
0.00595167
0.00607741
0.00620703
0.0063588
0.00638251
0.00624073
0.00590056
0.00538661
0.0047865
0.00421218
0.00375024
0.00342542
0.00320656
0.0030493
0.00292559
0.00282251
0.00273315
0.00265155
0.00257173
0.00249962
0.00243926
0.00240086
0.00238156
0.00233389
0.00222526
0.00207729
0.00143331
0.000605979
0.000665913
0.00125235
0.00189025
0.00240259
0.00287236
0.00354329
0.00449562
0.00533839
0.00565706
0.005714
0.00592399
0.00589063
0.00572727
0.00549173
0.00522805
0.00490257
0.00448954
0.0040296
0.00359501
0.00324138
0.00298197
0.00279841
0.00266457
0.00256128
0.00247892
0.00241425
0.00236798
0.00234381
0.00234684
0.0023687
0.00239802
0.0024287
0.00244419
0.002422
0.00235588
0.00210526
0.00118916
0.0010603
0.0027114
0.00137596
0.00123304
0.0018834
0.00268347
0.00348363
0.00433572
0.00510939
0.0055036
0.00542221
0.00481906
0.0043622
0.00453832
0.00441514
0.00420298
0.0039928
0.00377566
0.00352616
0.00325043
0.00298158
0.00274626
0.00255598
0.00240982
0.00230207
0.00222791
0.00218462
0.00216993
0.00217999
0.00220781
0.00225256
0.00232044
0.00240447
0.0024962
0.00258272
0.00264893
0.00270262
0.00280019
0.00189619
0.00123268
0.000821262
0.00191252
0.00259364
0.0031145
0.00354497
0.00390014
0.004135
0.00419722
0.00403307
0.0036352
0.00285848
0.00163819
0.000842636
0.000824475
0.000806118
0.000786426
0.000767924
0.000749564
0.00073194
0.000716931
0.000705871
0.000699957
0.000699544
0.0007045
0.000714572
0.000729577
0.000749458
0.000774352
0.000804716
0.000841598
0.000885565
0.000935828
0.000992575
0.00105563
0.00112432
0.00119852
0.00123975
0.00112784
0.00105518
0.00119422
0.00215143
0.00547618
0.00509584
0.00407022
0.00351053
0.00336692
0.00338788
0.00331746
0.0032112
0.00325361
0.00370206
0.00454257
0.00159971
0.00257651
0.0032818
0.00374475
0.00380728
0.00365497
0.00348605
0.00331904
0.00318193
0.00334583
0.00401929
0.00492189
0.0008544
0.0017611
0.00243157
0.00279094
0.00291207
0.00293935
0.00313425
0.00379026
0.00474662
0.00548588
0.000502244
0.000931274
0.00158258
0.00216226
0.00262926
0.00316969
0.00400137
0.0049639
0.00556724
0.00569478
0.00294474
0.00225287
0.00106846
0.00153651
0.00228416
0.003078
0.00390492
0.00475124
0.00535491
0.00553776
0.00515123
0.00462835
0.00203013
0.00224342
0.00291131
0.00333572
0.00373559
0.00403497
0.00419207
0.00414432
0.00386528
0.00331112
0.00227212
0.00116548
0.00134499
0.00269557
0.00399905
0.00435323
0.00409839
0.00372252
0.00349488
0.00339967
0.00327028
0.00320147
0.0034829
0.00423853
0.00107296
0.00117888
0.0015933
0.00235213
0.00298104
0.0032684
0.00330035
0.00321918
0.00311463
0.00324016
0.00387012
0.00479557
0.000471338
0.000769597
0.00151769
0.0021368
0.00251639
0.00274078
0.00306691
0.00381073
0.00479988
0.00550224
0.000487662
0.000773275
0.00134633
0.00202502
0.00270467
0.0034737
0.00438202
0.00519393
0.00562404
0.00546184
0.00106974
0.00256375
0.00217636
0.00224228
0.00289009
0.00358973
0.00424266
0.0048127
0.0051626
0.00511777
0.00456866
0.00362326
0.000978996
0.000897141
0.000950648
0.000986798
0.00098028
0.000934728
0.000856171
0.000750128
0.000636461
0.000533574
0.000436117
0.000392205
0.00186083
0.00357366
0.00429554
0.00427391
0.00390059
0.00358415
0.00344242
0.00333966
0.00321296
0.00328025
0.00381456
0.00469405
0.0010945
0.00119726
0.00196696
0.00270586
0.00316571
0.00330647
0.00326722
0.0031601
0.00312549
0.00349042
0.00432928
0.00519887
0.000460862
0.00114213
0.00185618
0.00235454
0.00263751
0.00286356
0.00338307
0.00430749
0.00521132
0.00568228
0.000549535
0.00103677
0.00168256
0.00236348
0.00306766
0.00392675
0.00481564
0.00547886
0.00560097
0.00536797
0.00284643
0.002492
0.00208588
0.00255051
0.00324488
0.00392194
0.0045445
0.0050263
0.0051962
0.00491526
0.00409632
0.00343447
0.000873725
0.000927389
0.000970948
0.000989368
0.000961776
0.000899438
0.000805749
0.000692518
0.000583873
0.000483603
0.000401433
0.000402354
)
;

boundaryField
{
    floor
    {
        type            nutkWallFunction;
        Cmu             0.09;
        kappa           0.41;
        E               9.8;
        value           nonuniform List<scalar> 
36
(
0.00013019
5.72842e-05
6.79926e-05
7.68826e-05
7.91096e-05
7.72867e-05
7.21177e-05
6.64639e-05
6.13528e-05
5.68708e-05
5.29321e-05
4.94577e-05
4.63985e-05
4.36576e-05
4.11402e-05
3.87366e-05
3.63188e-05
3.51655e-05
3.19749e-05
3.19748e-05
4.55752e-05
5.54232e-05
6.44368e-05
8.76596e-05
9.18559e-05
9.95633e-05
0.00013019
0.000153878
0.000127495
0.000104606
5.72841e-05
0.000104606
5.75502e-05
0.000123135
9.35026e-05
0.000143048
)
;
    }
    ceiling
    {
        type            nutkWallFunction;
        Cmu             0.09;
        kappa           0.41;
        E               9.8;
        value           nonuniform List<scalar> 
58
(
0.000105737
0.00011212
0.000117271
0.000119444
0.000116195
0.000108809
9.75872e-05
8.38119e-05
7.03353e-05
5.76222e-05
4.69582e-05
4.70788e-05
0.000102028
9.98457e-05
9.76343e-05
9.52556e-05
9.3014e-05
9.07834e-05
8.8636e-05
8.68024e-05
8.54483e-05
8.47232e-05
8.46724e-05
8.52799e-05
8.65133e-05
8.83469e-05
9.07697e-05
9.37926e-05
9.74644e-05
0.000101903
0.000107164
0.000113141
0.000119846
0.000127244
0.000135247
0.000143829
0.000148572
0.000135655
0.000127193
0.000143336
0.00013182
0.000143718
5.8252e-05
9.94522e-05
0.000108528
0.000114874
0.00011914
0.000118376
0.000112998
0.000103645
9.08519e-05
7.68934e-05
6.39948e-05
5.14901e-05
4.57441e-05
0.000122723
0.000141601
7.31508e-05
)
;
    }
    sWall
    {
        type            nutkWallFunction;
        Cmu             0.09;
        kappa           0.41;
        E               9.8;
        value           nonuniform List<scalar> 4(0.000128868 0.00011823 0.000127766 9.94551e-05);
    }
    nWall
    {
        type            nutkWallFunction;
        Cmu             0.09;
        kappa           0.41;
        E               9.8;
        value           nonuniform List<scalar> 6(9.95643e-05 0.000103258 0.000121214 0.000142762 0.000147773 0.000143346);
    }
    sideWalls
    {
        type            empty;
    }
    glass1
    {
        type            nutkWallFunction;
        Cmu             0.09;
        kappa           0.41;
        E               9.8;
        value           nonuniform List<scalar> 10(0.000118114 0.000160979 0.000198472 0.000235931 0.0002725 0.000313387 0.000160757 0.000129377 0.000154361 0.000122768);
    }
    glass2
    {
        type            nutkWallFunction;
        Cmu             0.09;
        kappa           0.41;
        E               9.8;
        value           nonuniform List<scalar> 2(0.000181483 0.000170691);
    }
    sun
    {
        type            nutkWallFunction;
        Cmu             0.09;
        kappa           0.41;
        E               9.8;
        value           nonuniform List<scalar> 
14
(
0.000118041
0.000126986
0.000128807
0.000134608
0.000139997
0.000145071
0.000150063
0.000155255
0.000160506
0.000165376
0.000169247
0.000170809
0.00016797
0.000158069
)
;
    }
    Table_master
    {
        type            nutkWallFunction;
        Cmu             0.09;
        kappa           0.41;
        E               9.8;
        value           nonuniform List<scalar> 9(9.76904e-05 8.55139e-05 7.53005e-05 6.69408e-05 6.01202e-05 5.45343e-05 4.9952e-05 4.62008e-05 4.32342e-05);
    }
    Table_slave
    {
        type            nutkWallFunction;
        Cmu             0.09;
        kappa           0.41;
        E               9.8;
        value           nonuniform List<scalar> 9(0.000109037 9.97315e-05 9.34596e-05 8.89132e-05 8.51238e-05 8.13239e-05 7.76167e-05 7.36853e-05 6.90503e-05);
    }
    inlet
    {
        type            calculated;
        value           uniform 0.000167705;
    }
    outlet
    {
        type            calculated;
        value           nonuniform List<scalar> 4(0.00294474 0.00225287 0.00106974 0.0027114);
    }
}


// ************************************************************************* //
