/*--------------------------------*- C++ -*----------------------------------*\
  =========                 |
  \\      /  F ield         | OpenFOAM: The Open Source CFD Toolbox
   \\    /   O peration     | Website:  https://openfoam.org
    \\  /    A nd           | Version:  6
     \\/     M anipulation  |
\*---------------------------------------------------------------------------*/
FoamFile
{
    version     2.0;
    format      ascii;
    class       volScalarField;
    location    "400";
    object      epsilon;
}
// * * * * * * * * * * * * * * * * * * * * * * * * * * * * * * * * * * * * * //

dimensions      [0 2 -3 0 0 0 0];

internalField   nonuniform List<scalar> 
458
(
0.000534442
0.000697624
0.00075621
0.000876332
0.00100093
0.00113491
0.00129019
0.00144012
0.00155988
0.00161563
0.00157416
0.00139919
0.000963595
0.000584567
0.000354742
5.18684e-05
8.38256e-05
0.000122578
0.000139251
0.00013247
0.000109138
8.6941e-05
6.97868e-05
5.68268e-05
4.69212e-05
3.92457e-05
3.32464e-05
2.84397e-05
2.44628e-05
2.1032e-05
1.7907e-05
1.60674e-05
1.24261e-05
0.00126126
0.0018248
0.00064068
0.000625119
0.00065417
0.000715666
0.000820347
0.000950036
0.00106793
0.00112651
0.00109418
0.000976386
0.000752016
0.000560257
0.00042215
0.000686614
0.000445007
0.000262615
4.93384e-05
8.95179e-05
0.000109502
0.000111682
0.000108756
0.000111662
8.85883e-05
6.80603e-05
5.25821e-05
4.1114e-05
3.2606e-05
2.62617e-05
2.14396e-05
1.77819e-05
1.54923e-05
1.45938e-05
4.00609e-05
2.68256e-05
0.00220553
0.00425012
0.000721757
0.000566575
0.000590885
0.000669472
0.000796492
0.00095302
0.00108449
0.00114732
0.00112267
0.00101442
0.000813657
0.000616465
0.000460891
0.000384402
0.000343073
0.000369068
0.000147299
0.000151637
0.000139306
0.000127163
0.000122191
0.000251912
0.000167517
0.000114018
8.03718e-05
5.87648e-05
4.44847e-05
3.48289e-05
2.82021e-05
2.37893e-05
1.85365e-05
1.66906e-05
8.51688e-05
4.34648e-05
0.00345546
0.00863431
0.00102943
0.000541398
0.000551178
0.00065001
0.000819306
0.00102358
0.00116654
0.00122849
0.00120474
0.00108287
0.000865434
0.000643143
0.000468795
0.000358263
0.000304115
0.000332163
0.00049146
0.000363211
0.000249539
0.00019091
0.000157281
0.000143558
0.00035193
0.000269752
0.00022157
0.000189251
0.000163735
0.000141293
0.000121684
0.000102944
8.36023e-05
5.01897e-05
3.28081e-05
0.000158809
6.40739e-05
0.0051272
0.0154259
0.00188048
0.000564848
0.000513875
0.000645373
0.000930375
0.00121563
0.00136074
0.00140834
0.00136381
0.00119923
0.000932059
0.000657448
0.000455283
0.000335676
0.00027388
0.000273784
0.00031974
0.00027743
0.000236322
0.00020336
0.000172934
0.000145852
0.000137049
0.000126614
0.000119297
0.000112424
0.000104195
9.43196e-05
8.4113e-05
7.41082e-05
6.45831e-05
5.17382e-05
4.02167e-05
0.000100554
0.000155443
0.000152556
0.00017637
0.000222527
0.00742728
0.0232032
0.00415291
0.000857967
0.000557463
0.000679969
0.00126067
0.00158387
0.00169189
0.00169471
0.00160212
0.00137362
0.00102095
0.000666253
0.000418899
0.000289711
0.000241602
0.000246555
0.000268427
0.000267795
0.000250507
0.000220602
0.000185191
0.000151964
0.000130818
0.00012274
0.000120973
0.000119337
0.000114815
0.000105929
9.26884e-05
7.89238e-05
6.64138e-05
5.51137e-05
4.79657e-05
6.98473e-05
0.000117647
0.000139239
0.000253492
0.000249698
0.0102906
0.0279665
0.00895217
0.00278395
0.00151782
0.00157809
0.00206806
0.00221232
0.00219745
0.00210198
0.00192145
0.00158935
0.00111616
0.000662023
0.000369409
0.000242768
0.000218725
0.000240115
0.000267602
0.000272803
0.000253122
0.000218598
0.000181297
0.000150726
0.000134397
0.000132507
0.000137433
0.000143281
0.000147272
0.000146872
0.000137251
0.000121217
0.000105812
9.29324e-05
8.77076e-05
0.000101691
0.000146521
0.00022441
0.000422877
0.000430246
0.0111165
0.0320032
0.0169215
0.00955542
0.00587808
0.00448438
0.00372388
0.00325535
0.0029161
0.0026243
0.00229778
0.00180741
0.00116593
0.000603072
0.000301477
0.00022101
0.000218563
0.000241799
0.00026059
0.000255271
0.000228902
0.000195052
0.000165749
0.00014757
0.000142438
0.000147939
0.000159876
0.000176063
0.000196162
0.000220027
0.000246289
0.000264077
0.00027919
0.000312959
0.000380419
0.000573277
0.00103019
0.001842
0.0056642
0.00157804
0.0105
0.0185355
0.0143901
0.0107786
0.00809782
0.00629565
0.00508535
0.0042669
0.00364542
0.00314196
0.00263691
0.00190676
0.00102636
0.000453791
0.000270567
0.000227971
0.000228398
0.000237716
0.000237996
0.000223213
0.000199249
0.00017534
0.000158556
0.000151276
0.000152757
0.000161243
0.00017575
0.000196966
0.000227039
0.000269225
0.0003278
0.000407506
0.000516123
0.00067662
0.000908422
0.00121271
0.00154894
0.00183994
0.00206894
0.00122656
0.00438669
0.00583208
0.00624889
0.00607846
0.00556972
0.00480712
0.00396108
0.00327446
0.0025875
0.00142388
0.000693499
0.000390061
0.000293743
0.000267676
0.000263297
0.00026231
0.000256189
0.000242788
0.000226324
0.000211466
0.000200909
0.00019506
0.000193359
0.000195368
0.000201286
0.000212283
0.000230706
0.000260389
0.000307291
0.000377826
0.000478834
0.000618348
0.000797095
0.000989717
0.00113147
0.00114393
0.000990425
0.000637439
0.00357645
0.0107891
0.00993246
0.00820899
0.00632297
0.0042688
0.00252281
0.00150731
0.000952848
0.000619968
0.000473423
0.000418517
0.000403419
0.000402985
0.000405326
0.000404291
0.000396511
0.000381521
0.000360994
0.000340732
0.000322535
0.000306768
0.000293792
0.000284435
0.000280088
0.000282574
0.000294103
0.000317467
0.000356985
0.000418217
0.000507625
0.00063119
0.000789053
0.00097007
0.00111559
0.00124077
0.000841438
0.000663033
0.00408436
0.0043444
0.0046092
0.00645982
0.00482986
0.00277206
0.00148172
0.00106152
0.000801279
0.000654587
0.00056633
0.000487321
0.00042836
0.000390548
0.000365821
0.000345569
0.000324409
0.000300278
0.000274923
0.000252814
0.000237121
0.00022629
0.000219993
0.0002177
0.000219177
0.000224564
0.000234341
0.00024936
0.000271053
0.000301987
0.000342777
0.000395597
0.000462886
0.000547845
0.000653691
0.00080508
0.000871772
0.000818416
0.000660682
0.000520223
)
;

boundaryField
{
    floor
    {
        Cmu             0.09;
        kappa           0.41;
        E               9.8;
        type            epsilonWallFunction;
        value           nonuniform List<scalar> 
36
(
0.000354742
5.18684e-05
8.38256e-05
0.000122578
0.000139251
0.00013247
0.000109138
8.6941e-05
6.97868e-05
5.68268e-05
4.69212e-05
3.92457e-05
3.32464e-05
2.84397e-05
2.44628e-05
2.1032e-05
1.7907e-05
1.60674e-05
1.24261e-05
1.24261e-05
2.68256e-05
4.34648e-05
6.40739e-05
0.000152556
0.00017637
0.000222527
0.000354742
0.000686614
0.000445007
0.000262615
5.18684e-05
0.000262615
4.93384e-05
0.000369068
0.000147299
0.00049146
)
;
    }
    ceiling
    {
        Cmu             0.09;
        kappa           0.41;
        E               9.8;
        type            epsilonWallFunction;
        value           nonuniform List<scalar> 
43
(
0.00408436
0.0043444
0.0046092
0.00645982
0.00482986
0.00277206
0.00148172
0.00106152
0.000801279
0.000654587
0.00056633
0.000487321
0.00042836
0.000390548
0.000365821
0.000345569
0.000324409
0.000300278
0.000274923
0.000252814
0.000237121
0.00022629
0.000219993
0.0002177
0.000219177
0.000224564
0.000234341
0.00024936
0.000271053
0.000301987
0.000342777
0.000395597
0.000462886
0.000547845
0.000653691
0.00080508
0.000871772
0.000818416
0.000660682
0.000520223
0.0105
0.0185355
0.00357645
)
;
    }
    sWall
    {
        Cmu             0.09;
        kappa           0.41;
        E               9.8;
        type            epsilonWallFunction;
        value           uniform 0.00408436;
    }
    nWall
    {
        Cmu             0.09;
        kappa           0.41;
        E               9.8;
        type            epsilonWallFunction;
        value           nonuniform List<scalar> 6(0.000222527 0.000249698 0.000430246 0.000637439 0.000663033 0.000520223);
    }
    sideWalls
    {
        type            empty;
    }
    glass1
    {
        Cmu             0.09;
        kappa           0.41;
        E               9.8;
        type            epsilonWallFunction;
        value           nonuniform List<scalar> 9(0.000534442 0.00126126 0.00220553 0.00345546 0.0051272 0.00742728 0.0102906 0.0111165 0.0105);
    }
    glass2
    {
        Cmu             0.09;
        kappa           0.41;
        E               9.8;
        type            epsilonWallFunction;
        value           nonuniform List<scalar> 2(0.00157804 0.00122656);
    }
    sun
    {
        Cmu             0.09;
        kappa           0.41;
        E               9.8;
        type            epsilonWallFunction;
        value           nonuniform List<scalar> 
14
(
0.000534442
0.000697624
0.00075621
0.000876332
0.00100093
0.00113491
0.00129019
0.00144012
0.00155988
0.00161563
0.00157416
0.00139919
0.000963595
0.000584567
)
;
    }
    Table_master
    {
        Cmu             0.09;
        kappa           0.41;
        E               9.8;
        type            epsilonWallFunction;
        value           nonuniform List<scalar> 9(0.000251912 0.000167517 0.000114018 8.03718e-05 5.87648e-05 4.44847e-05 3.48289e-05 2.82021e-05 2.37893e-05);
    }
    Table_slave
    {
        Cmu             0.09;
        kappa           0.41;
        E               9.8;
        type            epsilonWallFunction;
        value           nonuniform List<scalar> 9(0.00035193 0.000269752 0.00022157 0.000189251 0.000163735 0.000141293 0.000121684 0.000102944 8.36023e-05);
    }
    inlet
    {
        type            turbulentMixingLengthDissipationRateInlet;
        mixingLength    0.01;
        phi             phi;
        k               k;
        value           uniform 0.000471671;
    }
    outlet
    {
        type            zeroGradient;
    }
}


// ************************************************************************* //
