/*--------------------------------*- C++ -*----------------------------------*\
  =========                 |
  \\      /  F ield         | OpenFOAM: The Open Source CFD Toolbox
   \\    /   O peration     | Website:  https://openfoam.org
    \\  /    A nd           | Version:  6
     \\/     M anipulation  |
\*---------------------------------------------------------------------------*/
FoamFile
{
    version     2.0;
    format      ascii;
    class       surfaceScalarField;
    location    "400";
    object      phi;
}
// * * * * * * * * * * * * * * * * * * * * * * * * * * * * * * * * * * * * * //

dimensions      [1 0 -1 0 0 0 0];

internalField   nonuniform List<scalar> 
1482
(
-0.00276266
0.00284357
-0.00292316
0.000160804
-0.00196202
0.00501167
-0.00310451
0.000181659
-0.00255265
0.000751741
-0.00143535
0.00675116
-0.00334648
0.000242288
-0.00295736
0.000586666
-0.00220314
0.00151984
-0.00107098
0.00820653
-0.00357209
0.000225934
-0.00327
0.000555225
-0.00271478
0.0010986
-0.00191912
0.00236828
-0.000781351
0.00944079
-0.00374496
0.000173207
-0.00353067
0.0004869
-0.00306124
0.000901965
-0.00245808
0.00163785
-0.00168225
0.00326949
-0.000580342
0.0105347
-0.00384433
9.9706e-05
-0.00373191
0.00037475
-0.00333632
0.000762263
-0.0028113
0.00125546
-0.00221624
0.00217214
-0.00154112
0.00423057
-0.000646235
0.0117487
-0.00385425
1.0253e-05
-0.00386247
0.000230563
-0.00354871
0.000587419
-0.00308637
0.00103759
-0.00255357
0.00159305
-0.00200913
0.00264043
-0.00161318
0.00519782
-0.000557636
0.0129284
-0.00375919
-9.47211e-05
-0.00391192
5.99935e-05
-0.00369256
0.000374683
-0.0032998
0.000801106
-0.00281068
0.00129496
-0.00229719
0.00188138
-0.00185013
0.00287767
-0.00146561
0.00610609
0.0035191
0.0100962
-0.00354404
-0.000214807
-0.00387275
-0.000133597
-0.00376074
0.000128438
-0.00344916
0.000524293
-0.00301291
0.00100358
-0.00251225
0.00151027
-0.00203386
0.00206537
-0.00148959
0.00290194
0.0022896
0.0073359
0.00431937
0.00593648
-0.00320034
-0.000343367
-0.00374122
-0.000346049
-0.00374713
-0.000146947
-0.0035277
0.00020722
-0.00316021
0.000671821
-0.0026863
0.00117787
-0.00218011
0.00165677
-0.00165454
0.00223059
0.000477073
0.00471476
0.00379374
0.00786182
0.00225038
0.00387694
-0.00272858
-0.00047142
-0.00351695
-0.000567355
-0.00364808
-0.000444845
-0.00352807
-0.000146351
-0.0032449
0.000292133
-0.00282009
0.000805824
-0.0023104
0.0013084
-0.00177087
0.00177336
-0.000611947
0.00331986
0.00226227
0.00624652
0.00309962
0.00701285
0.00118335
0.00292167
-0.00211702
-0.00061122
-0.00320317
-0.000784915
-0.00346288
-0.00075231
-0.00344468
-0.000528008
-0.00325735
-0.000133692
-0.00290365
0.000375903
-0.00241908
0.000914723
-0.00186681
0.00140459
-0.0011303
0.00229196
0.00100667
0.00457572
0.0028422
0.00650421
0.00242408
0.00577239
0.00178336
0.00140406
-0.00126651
-0.000850178
-0.00281612
-0.000997979
-0.00319678
-0.00105077
-0.00327551
-0.000921254
-0.00318923
-0.000595927
-0.00292423
-0.000112919
-0.00249233
0.000449355
-0.00195019
0.000998333
-0.00130227
0.00157682
8.09005e-05
0.00321795
0.00222176
0.00519639
0.00301833
0.00591021
0.0026094
0.00494658
-0.00159757
0.00328813
-0.00125894
-0.00247978
-0.00118623
-0.00287669
-0.00131781
-0.00302804
-0.00129803
-0.00303639
-0.00107389
-0.00287011
-0.00064986
-0.00251492
-9.01426e-05
-0.00200698
0.000506357
-0.00140177
0.00109808
-0.000466206
0.00212416
0.0014892
0.00395072
0.00300605
0.0052089
0.00335412
0.00516572
0.00125697
0.0020923
0.00365048
-0.00266302
-0.0010754
-0.00256434
-0.00149834
-0.00272723
-0.0016184
-0.00280378
-0.00153043
-0.00273416
-0.00120966
-0.0024722
-0.000692397
-0.00202393
-7.30001e-05
-0.00145238
0.000557198
-0.00072114
0.00135327
0.000799848
0.00281367
0.00262148
0.00433548
0.00369735
0.00486589
0.00365695
0.00276598
0.00577674
-0.00196261
-0.000686636
-0.00215885
-0.00148064
-0.00239855
-0.0018268
-0.00250924
-0.00191274
-0.00251678
-0.00174762
-0.00235419
-0.00132751
-0.00198725
-0.000728908
-0.00145725
-6.79212e-05
-0.000816366
0.000652667
0.00031836
0.00183492
0.00208103
0.00335426
0.00356175
0.00447125
0.00434985
0.00417321
0.00568403
0.00285895
-0.0012029
-0.000745581
-0.00149481
-0.00135042
-0.00199787
-0.00188108
-0.00217344
-0.00216239
-0.00222992
-0.0021994
-0.00215731
-0.00194432
-0.00188574
-0.00142885
-0.00141805
-0.000767935
-0.000813951
-7.01302e-05
4.39319e-05
0.000927266
0.00158894
0.00232712
0.00317526
0.00374087
0.00432779
0.00449349
0.00561873
0.00423875
0.00774938
0.00673213
-0.00116865
-0.000754392
-0.00148574
-0.00150911
-0.00183894
-0.00180636
-0.00224794
-0.00189481
-0.00249728
-0.00188988
-0.00246663
-0.0017145
-0.0021154
-0.0013276
-0.00151914
-0.00076647
-0.000815257
-3.96999e-05
1.36545e-05
0.00122837
0.0012879
0.0027443
0.00275815
0.00402654
0.00404226
0.00519986
0.00491257
0.00548679
0.00650179
0.00170551
0.00517898
-0.00189283
-0.00117141
-0.00182321
-0.00144831
-0.00219676
-0.00153924
-0.0026033
-0.00157288
-0.00281407
-0.00147995
-0.00270098
-0.00118538
-0.00225746
-0.000682005
-0.00160346
-7.48459e-06
-0.000847352
0.00100049
0.000241594
0.00237253
0.0016597
0.00364616
0.0031386
0.00474483
0.00449745
0.00487896
0.00552092
0.00262372
0.00558404
-0.00347173
0.00899309
-0.000342162
-0.00157517
-0.00148884
-0.00122229
-0.00204901
-0.00120795
-0.00252783
-0.0012362
-0.00293977
-0.00120021
-0.0030936
-0.00099774
-0.00288842
-0.000573829
-0.00236547
5.5397e-05
-0.00166621
0.000910031
-0.000756835
0.00208469
0.000529425
0.00328414
0.00202174
0.00430212
0.00358144
0.00451439
0.0048625
0.00273694
0.00540831
-0.00170566
0.00381836
0.0042046
-0.00878938
-0.00764984
0.0102753
-0.00296723
-0.000684398
-0.000857065
-0.000996835
-0.00171407
-0.000946446
-0.00231029
-0.000917772
-0.00284603
-0.000899594
-0.00324017
-0.000776298
-0.00331483
-0.000449313
-0.00301273
0.00011194
-0.00242185
0.000888084
-0.00164417
0.00189939
-0.000571523
0.00299239
0.000821165
0.00390699
0.00241693
0.0041368
0.00395942
0.00282153
0.00477853
-0.000319188
0.00402237
-0.00503941
0.00120825
-0.00946934
0.00982901
-0.0083427
-0.00928593
0.00647381
0.000190912
-0.000167933
-0.000707166
-0.000613386
-0.00124029
-0.000691546
-0.00196874
-0.00063969
-0.00258815
-0.000609992
-0.00313542
-0.000533706
-0.00348253
-0.000308807
-0.0034551
0.000151722
-0.0030523
0.000855309
-0.00238892
0.00177361
-0.00151834
0.00279085
-0.000369961
0.00360648
0.00112174
0.00375798
0.0027961
0.00280509
0.00397643
0.000633706
0.0038263
-0.00302736
0.00201077
-0.00792281
0.00103498
-0.0017277
-0.00176401
0.00199131
-0.000469746
0.000430785
-0.000128772
-0.000342475
-0.000977854
-0.000374926
-0.00155668
-0.000381698
-0.00222651
-0.000346028
-0.00285189
-0.000296111
-0.00337279
-0.000147563
-0.00364355
0.000187264
-0.00349041
0.000781555
-0.00297833
0.00161831
-0.00223349
0.00260239
-0.00132981
0.00345043
-0.000213795
0.00344464
0.00143542
0.00255259
0.00304914
0.00111439
0.0034963
-0.00134845
0.00214795
-0.00576531
-0.00142389
-0.000312166
-0.000494398
0.00201604
-0.000432592
0.000789506
7.4045e-05
9.57092e-05
-0.000566731
-0.000120324
-0.00123223
-0.000109569
-0.00182858
-0.000100533
-0.00247178
-7.40184e-05
-0.00307377
1.44042e-05
-0.00353454
0.000244848
-0.00370091
0.000686491
-0.00339509
0.0013968
-0.0027566
0.0023154
-0.00194636
0.00323782
-0.00111709
0.00350833
-0.000277081
0.00215283
0.00183576
0.00107564
0.00308848
-9.65503e-05
0.00224492
-0.00348081
-0.00141302
-0.000307217
-0.000499328
5.57321e-05
0.0015278
-0.000256817
0.000971006
7.54634e-05
0.000493299
-0.000323336
0.000205164
-0.000891986
0.000137169
-0.00147872
0.000140477
-0.00206936
0.000138695
-0.00268427
0.000171515
-0.00323067
0.000309436
-0.00359892
0.000622554
-0.00363674
0.00114237
-0.00314041
0.00191436
-0.00235533
0.00281497
-0.00152333
0.00341654
-0.00102503
0.00269743
-0.000821161
0.00073539
0.00217663
0.000561928
0.00243061
-0.00110628
-0.0017202
3.98946e-05
-0.000483473
0.000104086
0.00116696
-0.000186932
0.00112616
3.19001e-05
0.000792801
-0.000223839
0.000532691
-0.000650637
0.000408428
-0.00116301
0.000370695
-0.00170871
0.000346464
-0.00227691
0.00033247
-0.00284502
0.000382685
-0.00330372
0.000572461
-0.00354863
0.000946437
-0.00344058
0.00147336
-0.00269914
0.00220806
-0.00174818
0.00291931
-0.00102586
0.00305627
-0.00138356
0.00173109
-0.00181663
0.00101441
0.00172468
0.00144793
-0.00168027
0.000107308
-0.00048668
0.000114075
0.000865993
0.00117405
-4.79543e-05
0.00102258
-0.000197693
0.000817137
-0.000508061
0.000679479
-0.000921451
0.000606227
-0.0013983
0.000549596
-0.00191162
0.000494016
-0.00243824
0.000475181
-0.00293732
0.000542544
-0.00327361
0.000767086
-0.00336909
0.00115738
-0.0031244
0.001566
-0.00205683
0.00211493
-0.000943534
0.00255501
-0.00052431
0.00269332
-0.00234562
0.00125137
-0.00205349
0.00328656
-0.00157293
0.000124927
-0.000497522
0.000154784
0.000711373
0.00127875
-0.000104779
0.00119577
-0.000220958
0.00105408
-0.000434414
0.000926561
-0.000754901
0.000836896
-0.00115187
0.000753357
-0.00160183
0.000657889
-0.00207528
0.000575862
-0.00253873
0.000554415
-0.00294901
0.000621053
-0.00312741
0.000846715
-0.00305827
0.00119316
-0.00275143
0.00129299
-0.00123469
0.00156881
4.29114e-05
0.00199492
0.000174278
0.00162275
-0.00271695
0.00135149
-0.00144796
0.000129235
-0.00047197
0.000117662
0.000593847
0.00140582
-0.000127159
0.00134044
-0.000249285
0.00124205
-0.000408701
0.00114043
-0.000648037
0.00105003
-0.000967778
0.000952302
-0.00135057
0.000826461
-0.00177018
0.000688282
-0.0021875
0.000582931
-0.00256706
0.000550952
-0.00287873
0.000582181
-0.00286272
0.000764633
-0.00262963
0.00102541
-0.0024838
0.000620946
-0.000286743
0.000867492
0.00117044
0.00121655
0.000580591
-0.00124851
-0.00131867
9.6847e-05
-0.00045115
7.34038e-05
0.000520565
0.00154492
-0.00013921
0.00147881
-0.000265364
0.00139485
-0.000401871
0.00131677
-0.000584787
0.00123789
-0.000835638
0.00113808
-0.0011533
0.000994909
-0.00151879
0.00081414
-0.00189583
0.000633405
-0.00223779
0.000501585
-0.00251753
0.000443065
-0.00273946
0.000395483
-0.00249345
0.000483546
-0.00208771
0.000781217
-0.00264415
-0.000109697
0.000690331
0.000675446
0.00171159
-0.000556077
-0.00122177
7.57141e-05
-0.000453445
4.53397e-05
0.000475352
0.00169055
-0.000145759
0.00161349
-0.00027374
0.00152852
-0.000398819
0.0014618
-0.000546654
0.00139654
-0.000743163
0.0013041
-0.00100139
0.00115589
-0.00131403
0.000947512
-0.00165194
0.00070799
-0.00197023
0.000482818
-0.00221885
0.000316327
-0.00239063
0.000215393
-0.00255923
3.04528e-05
-0.00204025
-1.78141e-06
-0.00130471
0.000726792
-0.00348077
0.000340607
0.00102505
0.00126345
-0.001146
6.59669e-05
-0.000474043
3.85395e-05
0.000436957
0.00183608
-0.000145672
0.00174487
-0.000277009
0.0016506
-0.00039561
0.00158438
-0.000521143
0.00152772
-0.00067756
0.00144627
-0.00088506
0.00130292
-0.00114816
0.00108091
-0.0014472
0.000798526
-0.00174228
0.000498382
-0.00198562
0.000225202
-0.00212757
1.68287e-05
-0.00219192
-0.00013313
-0.00239552
-0.000613252
-0.0014287
-0.000611773
3.38505e-05
0.000169161
-0.00330947
0.00239483
-0.00107997
7.07884e-05
-0.000506251
4.45114e-05
0.00039261
0.00197015
-0.000134249
0.00187256
-0.00027324
0.00176449
-0.000390703
0.00169087
-0.000501861
0.00163574
-0.000628894
0.00156373
-0.000794735
0.00143108
-0.00101295
0.00120777
-0.00127478
0.000897652
-0.00154612
0.000536831
-0.00178056
0.000174974
-0.00193525
-0.000145349
-0.00196527
-0.00038225
-0.00194268
-0.000564642
-0.00244403
-0.00156235
-0.000478046
-0.000923586
0.00112659
-0.000802692
-0.00100912
9.02714e-05
-0.000551958
5.20856e-05
0.000340707
0.00207038
-0.000100434
0.00199534
-0.000256932
0.00187242
-0.000380988
0.00178541
-0.000485005
0.00172491
-0.000590756
0.00165784
-0.000722713
0.00153743
-0.000900799
0.00132221
-0.00112713
0.000999577
-0.00137649
0.000592938
-0.00160206
0.000151288
-0.00175674
-0.000268192
-0.00181231
-0.000614282
-0.00173314
-0.000846809
-0.00166042
-0.00106745
-0.00293883
-0.00179335
0.000391782
0.000427594
-0.000918793
0.000121914
-0.000621714
5.93524e-05
0.00028155
0.00209566
-2.55311e-05
0.0021135
-0.000218524
0.00197683
-0.000361175
0.00187134
-0.000466681
0.00179891
-0.000558733
0.00173095
-0.000663576
0.00162093
-0.000805923
0.00141929
-0.000997605
0.00109763
-0.00122496
0.000663294
-0.00144666
0.000155693
-0.00160633
-0.000362733
-0.00166211
-0.000818594
-0.00160793
-0.00115754
-0.00142235
-0.00141477
-0.00131301
-0.00180826
-0.00292384
0.000928818
-0.000796817
0.000155579
-0.000717847
1.27403e-05
0.000269006
-6.04728e-05
0.0020326
0.000123422
0.00223168
-0.000143681
0.00208216
-0.000323719
0.00195229
-0.00044191
0.00186124
-0.000528744
0.00178581
-0.0006133
0.00168204
-0.00072439
0.00149568
-0.000882035
0.0011847
-0.00108443
0.000740087
-0.00130155
0.000188338
-0.00147915
-0.000415638
-0.0015533
-0.000994656
-0.00148596
-0.00144355
-0.00132188
-0.00180506
-0.001032
-0.00224633
-0.000874865
-0.00188208
-0.000641169
0.000178054
-0.000883069
4.74347e-05
0.000161105
-0.000297154
0.00198269
0.000346953
0.0023754
-2.03201e-05
0.00219818
-0.000259589
0.00203328
-0.000404516
0.00191575
-0.000496176
0.00182544
-0.000568092
0.00172223
-0.000653199
0.00154996
-0.000778384
0.00125525
-0.000952327
0.000813089
-0.00115721
0.000237785
-0.00135081
-0.000425606
-0.001469
-0.00111268
-0.00143511
-0.00172543
-0.00120396
-0.00214086
-0.000986022
-0.00266555
-0.000612724
-0.00264648
-0.000463041
0.00030425
-0.00113984
0.00019378
-0.000329784
7.22489e-05
0.00139341
0.000516903
0.00259467
0.000127609
0.00234167
-0.000163754
0.00212171
-0.000347853
0.00196722
-0.000455757
0.0018532
-0.000523668
0.00174357
-0.000589137
0.00158221
-0.000685166
0.00130636
-0.000829229
0.000874585
-0.00101359
0.000288389
-0.0012076
-0.000412394
-0.00136381
-0.00117077
-0.00141069
-0.00192599
-0.00123432
-0.0025602
-0.000784442
-0.00303064
-0.00062084
-0.00314881
-0.000158717
0.000604314
-0.00155036
0.00058061
-0.000838119
0.00129071
0.000153955
0.00289454
0.000216915
0.00251517
-4.58791e-05
0.00222544
-0.000267357
0.00202172
-0.000402142
0.00187285
-0.000475147
0.00174819
-0.000528005
0.00159332
-0.000599959
0.00133717
-0.000715711
0.000921305
-0.000875707
0.000330405
-0.00105539
-0.00039924
-0.00122054
-0.00120294
-0.0013314
-0.00202632
-0.00131008
-0.00284779
-0.000946434
-0.00342248
-0.000392381
-0.00365933
0.000445668
0.000536917
-0.00150663
0.000488975
0.00311197
-6.36508e-05
0.00267316
5.88746e-05
0.00234345
-0.000163815
0.00208584
-0.000331304
0.00188865
-0.000417712
0.00173759
-0.000464284
0.00158408
-0.000518482
0.00134764
-0.000610155
0.000953008
-0.00074717
0.000362363
-0.00090745
-0.000396604
-0.00105783
-0.0012449
-0.00117839
-0.00209596
-0.00126155
-0.00296076
-0.00119684
-0.0037773
-0.000591328
-0.00394159
0.000982653
-0.000992246
0.00355907
-0.000392519
0.00254437
6.50583e-05
0.0024435
-4.11516e-05
0.0021632
-0.000241045
0.00190586
-0.000348321
0.00171132
-0.0003912
0.00155409
-0.000434031
0.00133724
-0.000507824
0.000969905
-0.000626809
0.000387411
-0.000772011
-0.000401503
-0.000902389
-0.00130676
-0.000995852
-0.00220125
-0.00107302
-0.00304626
-0.00117595
-0.00408677
-0.000887207
-0.00442228
0.00359141
2.2884e-05
0.00200034
0.000151409
0.00241197
9.65644e-05
0.00224721
-0.000125083
0.00193341
-0.000268428
0.00166406
-0.00030085
0.00149976
-0.000336638
0.00130394
-0.000400485
0.000970414
-0.000508098
0.000408433
-0.000647631
-0.000405195
-0.000768182
-0.00137798
-0.000831128
-0.00235042
-0.000846737
-0.00320421
-0.000915177
-0.00437623
-0.000886562
-0.00519854
0.00377736
0.00145529
0.00056782
0.00215173
0.000411598
0.00230519
3.86202e-05
0.00199604
-0.000187592
0.00157743
-0.000181618
0.00140955
-0.000210422
0.00124245
-0.00027492
0.00094978
-0.000379626
0.000423964
-0.000523435
-0.000400701
-0.000651996
-0.00144273
-0.000703401
-0.00251643
-0.00066522
-0.00343729
-0.000613893
-0.00463631
-0.000655356
-0.00597489
0.00537585
0.0015106
0.00120887
0.00225837
0.00045841
0.00212056
-8.58208e-05
0.00137366
1.63147e-05
0.00125134
-2.3231e-05
0.00113896
-0.000106732
0.000898954
-0.000223889
0.000425123
-0.000380597
-0.000388499
-0.000535499
-0.00148983
-0.00060485
-0.00266891
-0.000551015
-0.00370053
-0.000402213
-0.00485597
-0.000394549
-0.00652145
0.00703356
0.00176257
0.00170464
0.00194135
0.000637673
0.000729147
0.000558796
0.000950967
0.000316829
0.00096635
0.000149551
0.000799475
-7.07709e-06
0.000392093
-0.000190687
-0.000382257
-0.000386691
-0.00151609
-0.000509142
-0.00278557
-0.00048818
-0.00394156
-0.000310113
-0.00503555
-0.000222877
-0.00680864
0.00932958
0.000325276
0.00332073
-0.00126709
0.00263408
0.000230602
0.00127924
0.000655516
0.000627792
0.0006265
0.000322672
0.000289417
9.57387e-05
-0.000412287
-0.000160523
-0.00152543
-0.000377217
-0.00285028
-0.000444309
-0.00411901
-0.000310667
-0.0051757
-0.000170013
-0.00692538
0.0102125
-0.00292472
0.00497846
-0.000860671
0.00372533
3.52914e-05
0.00189944
0.000263563
0.000990856
6.86628e-05
0.000543538
-0.000507151
0.000190682
-0.001523
-0.00016284
-0.00284695
-0.000380347
-0.00420578
-0.00035729
-0.0052724
-0.000213762
-0.00699028
0.00743007
-0.00131028
0.00542808
-0.000398311
0.00415867
-0.000283385
0.00244636
-0.000314278
0.00137395
-0.000683466
0.000719903
-0.00150557
0.000173269
-0.00275804
-0.000251591
-0.00418304
-0.00040271
-0.00531749
-0.000311761
-0.00709997
0.00627683
-0.000470689
0.00550027
-0.000425818
0.00430078
-0.000724415
0.00285673
-0.000890278
0.00158091
-0.00146627
0.000680539
-0.00257742
-7.35282e-06
-0.00403182
-0.000402441
-0.00529738
-0.000422193
-0.00730903
0.00597894
-0.000354725
0.00542879
-0.000969919
0.00454621
-0.00102414
0.00299103
-0.00134989
0.0014645
-0.00229147
0.000394407
-0.0037278
-0.00031112
-0.00519087
-0.000508253
-0.00763044
0.00581316
-0.000926305
0.00538491
-0.00130691
0.0048295
-0.00101483
0.00265623
-0.00182832
0.00100105
-0.00325224
-8.12317e-05
-0.00497078
-0.00053058
-0.00804046
0.00509165
-0.00143014
0.00550849
-0.000482667
0.00429797
-0.0010422
0.00186991
-0.002529
0.000277421
-0.00459231
-0.000459304
-0.00847587
0.00388034
-0.000379761
0.00540631
0.000176359
0.00307952
-0.00140604
0.000746341
-0.00395721
-0.000357707
-0.00884338
0.00372966
0.000889944
0.0046931
0.000181636
0.00149131
-0.00286985
-0.000341525
-0.00911277
0.0048507
0.00130066
0.00357384
-0.00125588
-0.000123443
-0.00936947
0.00638939
-0.000107514
0.00242475
-0.00941151
0.00654004
-0.00690877
)
;

boundaryField
{
    floor
    {
        type            calculated;
        value           nonuniform List<scalar> 
36
(
0
0
0
0
0
0
0
0
0
0
0
0
0
0
0
0
0
0
0
-9.53715e-06
-2.53129e-05
-3.64808e-05
-5.13862e-05
-5.47509e-05
-5.53902e-05
-5.58267e-05
-7.23115e-06
-1.34633e-05
-1.38246e-05
-1.35502e-05
-1.0849e-05
-2.04033e-05
-2.79334e-05
-2.99455e-05
-3.6299e-05
-3.34772e-05
)
;
    }
    ceiling
    {
        type            calculated;
        value           nonuniform List<scalar> 
43
(
-0.00010391
-0.000140772
-0.000154703
-0.000154476
-0.000146294
-0.000136057
-0.000129118
-0.00012303
-0.000113517
-0.000118302
-0.00011718
-0.000111708
-0.000107939
-0.00010642
-0.000112049
-0.000103769
-0.000109335
-0.000112882
-0.000110414
-0.000110301
-0.000110174
-0.000109929
-0.000110483
-0.000110939
-0.000110351
-0.000109007
-0.000107523
-0.000106194
-0.000105009
-0.000103769
-0.000102211
-0.000100144
-9.75508e-05
-9.45762e-05
-9.14366e-05
-8.82905e-05
-8.51466e-05
-8.19564e-05
-7.86599e-05
-8.44008e-05
-3.18119e-05
-3.37016e-05
-0.000152139
)
;
    }
    sWall
    {
        type            calculated;
        value           nonuniform List<scalar> 9(-0.000159406 -0.00019057 -0.000227808 -0.000265493 -0.000286219 -0.000330259 -0.000609213 -0.000674865 -0.000588431);
    }
    nWall
    {
        type            calculated;
        value           nonuniform List<scalar> 
14
(
-0.000130288
-0.000143337
-0.000147233
-0.000142423
-0.000157116
-0.000172886
-0.00018906
-0.000204899
-0.000218739
-0.000228466
-0.000230611
-0.000238212
-0.000258571
-0.00028491
)
;
    }
    sideWalls
    {
        type            empty;
        value           nonuniform 0();
    }
    glass1
    {
        type            calculated;
        value           nonuniform List<scalar> 9(-8.05825e-05 -0.000205767 -0.000303824 -0.000384083 -0.000452611 -0.000513295 -0.000567509 -0.000621784 -0.000686577);
    }
    glass2
    {
        type            calculated;
        value           nonuniform List<scalar> 2(-0.000533566 -0.000557706);
    }
    sun
    {
        type            calculated;
        value           uniform 0;
    }
    Table_master
    {
        type            calculated;
        value           nonuniform List<scalar> 9(-1.57603e-07 -1.57686e-07 -1.57724e-07 -1.57752e-07 -1.57781e-07 -1.57818e-07 -1.57864e-07 -1.57913e-07 -1.57931e-07);
    }
    Table_slave
    {
        type            calculated;
        value           nonuniform List<scalar> 9(1.57513e-07 1.57568e-07 1.57561e-07 1.57542e-07 1.57514e-07 1.57483e-07 1.5745e-07 1.57425e-07 1.57413e-07);
    }
    inlet
    {
        type            calculated;
        value           uniform -0.0116224;
    }
    outlet
    {
        type            calculated;
        value           nonuniform List<scalar> 2(0.0142836 0.0135782);
    }
}


// ************************************************************************* //
