/*--------------------------------*- C++ -*----------------------------------*=========                 |
  \      /  F ield         | OpenFOAM: The Open Source CFD Toolbox
   \    /   O peration     | Website:  https://openfoam.org
    \  /    A nd           | Version:  6
     \/     M anipulation  |
\*---------------------------------------------------------------------------*/
FoamFile
{
    version     2.0;
    format      ascii;
    class       volScalarField;
    location    "400";
    object      PPD;
}
// * * * * * * * * * * * * * * * * * * * * * * * * * * * * * * * * * * * * * //

dimensions      [0 0 0 0 0 0 0];

internalField   nonuniform List<scalar> 
458
(
41.63633366255933
29.62123014297505
28.122592609320407
26.874568578389045
26.100654007180793
25.755816199937627
25.891034469299214
26.53185425901256
27.845911251508582
30.055407914745984
33.44455196998014
36.640623847458045
37.4263559590014
37.83365924101811
38.43566906180075
44.73002470750906
43.997201598564686
43.79559557371974
44.17380611700009
44.476980298738134
44.67938726538458
44.419965496226055
44.20853776946046
44.27675748557322
44.39535336047095
44.54711146105785
44.73876420518761
44.9888451674149
45.35033705223252
45.969749029999505
46.561822870088726
46.81749578766553
47.611805543983465
38.16462421851847
30.185076878391442
29.616871962932606
28.35798296307071
27.634732432723382
27.28855103933202
27.364833337934797
27.71580669829342
28.35449125640983
29.478703962424447
31.3781072965579
34.35156328195998
37.3068849523749
37.83365924101811
37.736835541174045
35.77694878308394
35.95001978609265
37.20170103345994
42.446008269540904
43.26756743595279
43.26756743595279
43.694884982433756
43.835969730178554
43.82580451231505
43.87782416220633
43.960325430362374
44.02138866416288
44.06011253019643
44.10791845291536
44.199476394456816
44.307575437735856
44.49677123867689
44.95158587556904
45.491242299747114
45.89844106903636
45.126647096706314
39.719389487874786
29.823673861395193
31.14771019830644
30.480010702221662
30.18769335036204
30.04165660657081
30.03750882265834
29.8338787299228
29.166085767259077
28.61471217419374
29.197037080708853
31.558139714343753
36.086430479784326
38.19443744089057
38.48398302652146
38.5445029314086
38.34301667286706
37.65666783125638
37.75379571300465
40.81194012021716
41.264224569227785
41.75196968098198
42.397594904878616
42.629027505615014
43.84918617982608
44.70470421487085
44.75534873431457
44.780676286302864
44.83134192985265
44.85668000340827
44.907366609041176
44.983422528462036
45.16100645943546
45.36416217716125
45.03156425590913
41.303276537025575
43.57262828167641
29.558953066783715
32.28320031189449
32.86866399049997
33.734697490689655
34.30745009663772
34.38535225879342
33.0395608848204
30.210766884911138
27.821495468532277
27.433667344199378
29.703375673575934
34.07714320705999
38.56140734680149
39.21134829678989
39.284354377700886
37.592322217343614
36.37636173794193
34.10303219388713
37.27890844616307
39.189072143909776
40.62584311019247
42.31897914515721
44.255557182703036
45.75055879982608
45.50694464795889
45.29186569754039
45.318921968902664
45.444613751258935
45.66605442430238
46.11988344800899
46.86894882743471
48.161177177891396
48.03376027417692
47.12466924415058
44.032118070300776
39.07221051381374
48.56222979003767
29.946260891514484
33.14468566144858
35.03423048600395
37.875218862108305
40.3346693082671
40.64235164982796
36.520804756998174
31.040169586618674
27.092708278460876
26.15306803016911
28.510844933827244
33.000890933419754
38.020877271444895
40.286846539692334
40.36053861985652
39.38968651519662
37.96557824772919
37.979267398258095
38.87800353825912
40.58037423892315
42.792067035851325
45.12422876709982
47.40433664447111
49.15570392090341
49.782481362861624
49.93007081318856
50.00574825716145
50.005508603788286
49.90114625503566
49.84359089146848
49.81994381808294
49.80090358664942
48.90584792729273
47.37384278576844
43.31650149908396
43.21614869349472
43.308082340759825
47.879770178738674
41.46718454529245
53.85948313691538
31.360567070269866
34.68353773052888
36.665440570942
41.115448711731695
44.958067099229346
45.93505807181826
37.71622648669868
30.823578476884038
26.286233596165502
25.29489545783254
27.870818439788493
32.91154225950872
38.790880559202535
41.843568789130416
42.09237302769428
41.96791482840578
42.042576355368695
42.44774767985217
43.640044591788104
45.558515421376825
47.56048467536335
49.18149938139692
50.49935402271212
51.50961697033999
52.209942094659056
52.67712364485754
52.98867507807485
53.11850593072438
53.06657249292037
52.83289115300191
52.44350808371353
51.58891028610467
49.92779956216703
47.84361311384278
43.998986752105395
43.58722139419117
43.279863097363
44.631155073620924
45.064070321941465
58.90591976352761
35.51125003598706
40.72136292603576
39.7131435017375
42.71862191888674
46.99663272382874
42.593381871794
36.132609327812254
29.318825511887596
25.003889647036175
24.531840901162553
27.966657115711797
34.2154697921344
41.49068909229262
44.0224195092919
44.55285597914377
44.55285597914377
44.85668000340827
45.89844106903636
47.38094098176079
49.000971395023484
50.55111644043696
51.89861093810933
52.936745417967614
53.66387340680743
54.13137735234581
54.39109606622741
54.49497925448255
54.46900875647138
54.28721008360218
53.923596916038356
53.40416198891108
52.80692870078337
51.901356688998206
49.42848972716693
46.02351330586917
44.40907158831848
43.30192293239202
41.86965785893854
47.45474940372156
66.35329930900518
55.088606327467815
51.94489737510755
45.76787653289762
44.64408855373917
43.90897281317342
39.70253804605102
32.28489183563083
25.634895707737513
22.61563023761248
23.916913942023697
29.460574056009477
37.94564632025102
44.83134192985265
46.86866401741867
47.48352216875253
47.714477010159506
48.279852917054505
49.4137423764129
50.81000850577055
52.18399370637565
53.35222208117683
54.28721008360218
54.91047048916094
55.27394553264571
55.45556908535387
55.507478055030944
55.42961367883525
55.27394553264571
55.040293229427256
54.70273453419349
54.20929417048581
53.63790154736362
52.936745417967614
52.15804603369466
51.302241779122795
50.78291314439948
49.27429939368401
45.08278525132069
40.5820823549486
76.61293567977759
69.56690663622352
61.18226333686012
53.52893959500411
48.591385089330835
44.490463157481024
33.619049803632365
23.697505327359238
19.119652573372804
19.669217009330467
24.828622977157366
34.74158997060407
44.45169564080177
48.459976792795615
49.95619735143177
50.57699969424122
51.06902643342842
51.79485953846931
52.78096671502035
53.81970673484217
54.75467054709491
55.45556908535387
55.739596407931764
55.543899170037584
55.25333951448461
54.931271718320836
54.53580351418941
54.04099627893829
53.504825252871754
52.87252013480981
52.145052426302556
51.32256944230059
50.55003139101546
49.622626030349075
48.53882133942632
47.58487093270153
46.94901347310011
46.726328844032125
46.19572812545471
44.54982042915831
60.98861786669272
18.486579450846094
6.4193498522081285
5.125938581766746
5.150340813758504
6.852577307460592
11.835286015212347
20.999557170521996
34.30150976756161
45.00878140173789
49.63984358049438
50.33710513208253
50.854542760319184
51.3436677158343
51.981859445736
52.7545712654374
53.4947073385131
54.03002306477584
54.3075670699349
54.346644112493344
54.23053850421314
53.99320845310508
53.654290057318484
53.228978489962174
52.79323981590261
52.30603472524969
51.84400870721
51.44039922524993
51.1221191662449
50.89818934353531
50.725293031405926
50.57619722864083
50.48061024027888
50.50505735715311
51.056830185208845
53.059788370640426
56.795371630947876
48.57325798948867
61.52121483183629
13.006011084145186
5.024515496053468
6.649349192467511
10.571136684706104
18.342451383032596
30.33157164878419
40.97637368062175
45.14999557288196
47.775312705543314
49.31604492633067
50.178159476393084
50.818239543105285
51.354164303070476
51.83647458429216
52.280220978840035
52.67082804787819
52.95760365559657
53.12128486150991
53.14548579933656
53.08287849444192
52.965514014413124
52.79952794909191
52.618865122766245
52.43169144151242
52.27416719800331
52.131384936923524
52.055544641964424
52.044024906501846
52.16769536006173
52.512435477906486
53.1142335469618
53.77614428669235
54.313414981650006
54.90156430897423
56.82021651785983
53.94342129105123
50.85890715690415
31.723332607565283
31.72401502690947
26.21333703365198
5.748547431686248
8.455953493660687
19.78971523981157
31.97145069035274
38.84866023063021
43.316987521286514
46.10742325408893
47.9161021992032
49.212848529000475
50.014556729201246
50.505265040629716
50.81981245570382
51.045338446014505
51.17131456005418
51.18482845105531
51.09727433210832
50.95419001142449
50.79406161534043
50.62674342018624
50.461960720776354
50.303951726892144
50.213077994853045
50.141531318911596
50.12956010125459
50.196005411293605
50.396266126503924
50.71410715444437
51.207716807515446
51.94243047678749
53.19430917370582
55.36349353453038
58.33037526275763
58.64009499138422
57.07492490308829
53.9590723889119
51.25475730041516
51.955729253470444
)
;

boundaryField
{
    ".*"
    {
        type            zeroGradient;
    }
}


// ************************************************************************* //
