/*--------------------------------*- C++ -*----------------------------------*\
  =========                 |
  \\      /  F ield         | OpenFOAM: The Open Source CFD Toolbox
   \\    /   O peration     | Website:  https://openfoam.org
    \\  /    A nd           | Version:  6
     \\/     M anipulation  |
\*---------------------------------------------------------------------------*/
FoamFile
{
    version     2.0;
    format      ascii;
    class       volScalarField;
    location    "400";
    object      T;
}
// * * * * * * * * * * * * * * * * * * * * * * * * * * * * * * * * * * * * * //

dimensions      [0 0 0 1 0 0 0];

internalField   nonuniform List<scalar> 
778
(
308.717
308.463
308.65
308.405
308.463
308.512
308.374
308.358
308.324
308.435
308.354
308.298
308.219
308.198
308.368
308.34
308.262
308.153
308.085
308.096
308.301
308.329
308.239
308.112
308.019
307.987
308.019
308.23
308.322
308.226
308.087
307.98
307.929
307.925
307.963
308.151
308.315
308.22
308.074
307.956
307.895
307.878
307.89
307.924
308.061
308.308
308.217
308.071
307.943
307.873
307.85
307.854
307.872
307.902
307.957
308.302
308.216
308.075
307.94
307.859
307.83
307.831
307.844
307.865
307.896
307.948
308.295
308.218
308.086
307.949
307.853
307.814
307.812
307.826
307.842
307.865
307.896
307.941
308.288
308.222
308.102
307.967
307.86
307.804
307.792
307.806
307.828
307.846
307.868
307.897
307.934
308.28
308.228
308.123
307.995
307.879
307.804
307.775
307.781
307.808
307.833
307.852
307.873
307.9
307.929
308.265
308.237
308.147
308.029
307.911
307.82
307.769
307.755
307.778
307.815
307.843
307.859
307.881
307.905
307.925
308.245
308.173
308.067
307.952
307.851
307.78
307.743
307.744
307.788
307.831
307.856
307.868
307.894
307.915
308.237
308.198
308.108
308.001
307.896
307.81
307.752
307.72
307.757
307.813
307.852
307.868
307.88
307.918
308.223
308.208
308.148
308.053
307.952
307.858
307.784
307.736
307.741
307.795
307.845
307.869
307.873
307.918
307.922
308.187
308.208
308.174
308.105
308.013
307.919
307.837
307.78
307.76
307.788
307.837
307.871
307.874
307.875
307.994
308.09
308.19
308.187
308.144
308.073
307.987
307.904
307.84
307.803
307.803
307.836
307.872
307.883
307.865
307.889
308.127
308.509
308.17
308.167
308.121
308.054
307.976
307.91
307.861
307.84
307.849
307.875
307.89
307.875
307.851
307.918
308.313
308.771
308.489
307.592
308.15
308.152
308.108
308.049
307.983
307.928
307.891
307.878
307.885
307.896
307.889
307.855
307.842
307.956
308.301
308.816
308.68
308.482
306.806
307.697
308.127
308.138
308.101
308.049
307.993
307.947
307.918
307.905
307.904
307.898
307.869
307.832
307.841
307.982
308.314
308.761
308.695
306.596
306.825
307
307.651
308.068
308.109
308.086
308.045
307.998
307.959
307.933
307.917
307.904
307.881
307.841
307.816
307.843
307.963
308.919
306.35
306.628
306.835
306.913
307.045
307.563
307.974
308.054
308.054
308.026
307.99
307.957
307.931
307.911
307.888
307.852
307.815
307.809
307.819
306.23
306.346
306.617
306.856
306.918
306.953
307.056
307.467
307.856
307.974
308
307.99
307.966
307.939
307.915
307.89
307.859
307.821
307.804
307.799
306.2
306.328
306.585
306.892
306.937
306.953
306.969
307.052
307.373
307.727
307.874
307.927
307.936
307.926
307.908
307.886
307.86
307.826
307.804
307.799
306.143
306.321
306.544
306.925
306.955
306.969
306.97
306.977
307.04
307.286
307.597
307.762
307.84
307.872
307.878
307.87
307.853
307.826
307.804
307.801
306.128
306.294
306.471
306.935
306.974
306.987
306.986
306.979
306.978
307.025
307.21
307.475
307.65
307.752
307.807
307.831
307.833
307.819
307.802
307.801
306.14
306.271
306.415
306.942
306.99
307.006
307.004
306.993
306.98
306.976
307.009
307.145
307.369
307.549
307.675
307.753
307.792
307.801
307.794
307.799
306.159
306.295
306.359
306.947
307.006
307.024
307.022
307.01
306.993
306.977
306.97
306.992
307.093
307.284
307.474
307.623
307.72
307.767
307.78
307.794
306.166
306.31
306.35
306.95
307.021
307.041
307.039
307.026
307.007
306.988
306.971
306.962
306.977
307.057
307.232
307.437
307.605
307.707
307.755
307.785
306.211
306.304
306.386
306.95
307.035
307.059
307.056
307.041
307.021
307
306.98
306.963
306.953
306.967
307.043
307.225
307.436
307.6
307.702
307.767
306.214
306.303
306.419
306.949
307.049
307.075
307.072
307.055
307.034
307.012
306.991
306.971
306.955
306.949
306.971
307.067
307.27
307.479
307.629
307.729
306.201
306.299
306.451
306.945
307.063
307.091
307.087
307.068
307.045
307.023
307.001
306.981
306.963
306.951
306.956
307.006
307.164
307.374
307.556
307.688
306.186
306.296
306.484
306.935
307.075
307.106
307.101
307.08
307.056
307.033
307.012
306.992
306.973
306.96
306.96
306.995
307.118
307.31
307.496
307.65
306.174
306.296
306.52
306.914
307.087
307.12
307.115
307.092
307.067
307.044
307.023
307.003
306.985
306.972
306.972
307.003
307.104
307.276
307.455
307.617
306.167
306.304
306.564
306.949
307.1
307.134
307.129
307.104
307.078
307.055
307.034
307.015
306.998
306.986
306.987
307.017
307.107
307.261
307.427
307.59
306.165
306.33
306.57
306.99
307.121
307.149
307.142
307.117
307.089
307.066
307.046
307.029
307.013
307.002
307.004
307.035
307.116
307.255
307.408
307.567
306.164
306.323
306.604
307.028
307.142
307.163
307.156
307.13
307.1
307.078
307.06
307.044
307.029
307.02
307.023
307.054
307.129
307.253
307.393
307.546
306.17
306.339
306.639
307.162
307.177
307.17
307.144
307.113
307.092
307.075
307.06
307.048
307.04
307.046
307.076
307.145
307.254
307.38
307.526
306.206
306.408
307.18
307.189
307.185
307.16
307.127
307.106
307.091
307.078
307.068
307.063
307.07
307.099
307.161
307.257
307.369
307.507
306.265
307.173
307.199
307.199
307.178
307.141
307.121
307.108
307.097
307.088
307.085
307.093
307.119
307.174
307.259
307.359
307.488
307.174
307.196
307.21
307.197
307.156
307.136
307.124
307.115
307.109
307.107
307.114
307.138
307.187
307.261
307.351
307.47
307.181
307.214
307.217
307.171
307.151
307.14
307.133
307.128
307.127
307.134
307.155
307.198
307.263
307.343
307.453
307.186
307.236
307.189
307.167
307.156
307.15
307.146
307.146
307.152
307.171
307.208
307.265
307.336
307.436
307.258
307.21
307.184
307.172
307.165
307.162
307.163
307.169
307.185
307.217
307.268
307.33
307.42
307.251
307.204
307.189
307.18
307.177
307.177
307.183
307.198
307.226
307.269
307.325
307.405
307.237
307.209
307.196
307.19
307.19
307.196
307.209
307.234
307.271
307.32
307.39
307.243
307.216
307.203
307.2
307.206
307.218
307.24
307.273
307.315
307.376
307.246
307.22
307.211
307.213
307.225
307.245
307.273
307.31
307.363
307.25
307.225
307.22
307.229
307.247
307.273
307.305
307.351
307.253
307.23
307.231
307.247
307.271
307.299
307.338
307.256
307.237
307.245
307.267
307.292
307.326
307.259
307.246
307.261
307.285
307.313
307.262
307.257
307.276
307.3
307.266
307.27
307.285
307.271
307.271
307.272
)
;

boundaryField
{
    floor
    {
        type            wallHeatTransfer;
        Tinf            uniform 305.2;
        alphaWall       uniform 0.36;
        value           nonuniform List<scalar> 
36
(
307.861
305.93
305.906
305.783
305.707
305.672
305.655
305.647
305.69
305.71
305.708
305.707
305.712
305.724
305.747
305.781
305.831
305.913
305.957
305.957
306.131
306.365
306.728
306.868
306.841
306.807
307.861
307.832
307.794
307.702
305.93
307.702
306.076
307.735
306.295
307.177
)
;
    }
    ceiling
    {
        type            wallHeatTransfer;
        Tinf            uniform 301.2;
        alphaWall       uniform 0.36;
        value           nonuniform List<scalar> 
43
(
308.347
308.153
307.939
307.796
307.47
307.327
307.295
307.275
307.252
307.234
307.213
307.19
307.167
307.137
307.092
307.055
307.028
307.012
307.004
307.001
307
306.999
306.995
306.989
306.981
306.97
306.959
306.946
306.932
306.918
306.905
306.892
306.879
306.867
306.855
306.841
306.825
306.805
306.785
306.744
307.615
307.649
307.752
)
;
    }
    sWall
    {
        type            wallHeatTransfer;
        Tinf            uniform 315.2;
        alphaWall       uniform 0.54;
        value           nonuniform List<scalar> 9(308.644 308.606 308.567 308.524 308.475 308.416 309.499 309.339 309.594);
    }
    nWall
    {
        type            wallHeatTransfer;
        Tinf            uniform 308.2;
        alphaWall       uniform 0.54;
        value           nonuniform List<scalar> 
14
(
307.436
307.425
307.433
307.416
307.419
307.416
307.412
307.406
307.4
307.393
307.383
307.372
307.361
307.388
)
;
    }
    sideWalls
    {
        type            empty;
    }
    glass1
    {
        type            wallHeatTransfer;
        Tinf            uniform 315.2;
        alphaWall       uniform 4.3;
        value           nonuniform List<scalar> 9(312.752 312.247 311.939 311.813 311.722 311.645 311.569 311.486 311.388);
    }
    glass2
    {
        type            wallHeatTransfer;
        Tinf            uniform 308.2;
        alphaWall       uniform 4.3;
        value           nonuniform List<scalar> 2(307.88 307.866);
    }
    sun
    {
        type            wallHeatTransfer;
        Tinf            uniform 305.2;
        alphaWall       uniform 0.36;
        value           nonuniform List<scalar> 
14
(
308.295
308.151
308.097
308.062
308.036
308.015
307.999
307.985
307.972
307.959
307.946
307.931
307.915
307.894
)
;
    }
    Table_master
    {
        type            zeroGradient;
    }
    Table_slave
    {
        type            zeroGradient;
    }
    inlet
    {
        type            fixedValue;
        value           uniform 298.15;
    }
    outlet
    {
        type            zeroGradient;
    }
}


// ************************************************************************* //
