/*--------------------------------*- C++ -*----------------------------------*\
  =========                 |
  \\      /  F ield         | OpenFOAM: The Open Source CFD Toolbox
   \\    /   O peration     | Website:  https://openfoam.org
    \\  /    A nd           | Version:  6
     \\/     M anipulation  |
\*---------------------------------------------------------------------------*/
FoamFile
{
    version     2.0;
    format      ascii;
    class       volVectorField;
    location    "400";
    object      U;
}
// * * * * * * * * * * * * * * * * * * * * * * * * * * * * * * * * * * * * * //

dimensions      [0 1 -1 0 0 0 0];

internalField   nonuniform List<vector> 
778
(
(0.0302805 0.0907579 0)
(0.0913131 -0.172306 0)
(0.399677 -0.0412489 0)
(0.206322 -0.132248 0)
(0.212 -0.185446 0)
(0.528631 -0.29126 0)
(0.311012 -0.0886198 0)
(0.270851 -0.156186 0)
(0.169386 -0.294327 0)
(0.569313 -0.439617 0)
(0.381288 -0.0601114 0)
(0.340175 -0.0979911 0)
(0.241576 -0.209616 0)
(0.0445225 -0.337034 0)
(0.596031 -0.543523 0)
(0.420508 -0.0421371 0)
(0.379595 -0.0574346 0)
(0.297349 -0.136531 0)
(0.168505 -0.217365 0)
(-0.0576932 -0.364468 0)
(0.601398 -0.610836 0)
(0.440266 -0.0294285 0)
(0.401004 -0.0312848 0)
(0.316222 -0.0892897 0)
(0.219843 -0.144653 0)
(0.117415 -0.230309 0)
(-0.11749 -0.380546 0)
(0.576291 -0.650767 0)
(0.447618 -0.0196369 0)
(0.412863 -0.0117029 0)
(0.326743 -0.0568691 0)
(0.228427 -0.0980489 0)
(0.155025 -0.159788 0)
(0.0874672 -0.243109 0)
(-0.13603 -0.390108 0)
(0.509033 -0.662867 0)
(0.444588 -0.0112666 0)
(0.417669 0.00494621 0)
(0.335382 -0.0313367 0)
(0.23557 -0.0624818 0)
(0.155654 -0.111994 0)
(0.104531 -0.170859 0)
(0.0659566 -0.250648 0)
(-0.124877 -0.396951 0)
(0.381598 -0.647442 0)
(0.431721 -0.00332913 0)
(0.414108 0.0195022 0)
(0.340685 -0.00883766 0)
(0.244373 -0.0329897 0)
(0.161498 -0.0735825 0)
(0.0998547 -0.121174 0)
(0.0621417 -0.175124 0)
(0.0455313 -0.25068 0)
(-0.100484 -0.406353 0)
(0.179942 -0.636123 0)
(0.408684 0.00501741 0)
(0.402234 0.0332131 0)
(0.340656 0.0132054 0)
(0.251054 -0.00643417 0)
(0.170161 -0.041687 0)
(0.106114 -0.081578 0)
(0.0566621 -0.12805 0)
(0.0246193 -0.173932 0)
(0.0234639 -0.245479 0)
(-0.0792718 -0.414712 0)
(0.147255 -0.624151 0)
(0.374064 0.01495 0)
(0.381884 0.0475096 0)
(0.334608 0.0358785 0)
(0.255418 0.0194104 0)
(0.176754 -0.0134436 0)
(0.114842 -0.0482485 0)
(0.0648011 -0.0900845 0)
(0.0223135 -0.135159 0)
(-0.00716296 -0.170127 0)
(-0.000536061 -0.238496 0)
(-0.0710826 -0.41082 0)
(0.104312 -0.603463 0)
(0.324528 0.0290994 0)
(0.352758 0.064004 0)
(0.322411 0.0600033 0)
(0.255634 0.0460126 0)
(0.182249 0.0147088 0)
(0.120923 -0.0183796 0)
(0.0735645 -0.0556919 0)
(0.0311564 -0.0993233 0)
(-0.00813068 -0.141051 0)
(-0.0321501 -0.164502 0)
(-0.0240496 -0.222492 0)
(-0.0767936 -0.397349 0)
(0.041945 -0.540995 0)
(0.248925 0.0569629 0)
(0.315884 0.0851483 0)
(0.30402 0.0863198 0)
(0.251288 0.0744271 0)
(0.185239 0.0450222 0)
(0.125217 0.0111485 0)
(0.0792705 -0.0234781 0)
(0.038486 -0.063115 0)
(-0.00183091 -0.106674 0)
(-0.0402421 -0.140463 0)
(-0.0592788 -0.148725 0)
(-0.051236 -0.196051 0)
(-0.112042 -0.358258 0)
(-0.0588819 -0.404916 0)
(0.193946 0.136455 0)
(0.275182 0.115838 0)
(0.280474 0.115431 0)
(0.24186 0.104986 0)
(0.185007 0.0782464 0)
(0.127838 0.0433429 0)
(0.0817982 0.0081032 0)
(0.043728 -0.0278588 0)
(0.00250833 -0.0689959 0)
(-0.0383398 -0.108342 0)
(-0.0780299 -0.133001 0)
(-0.0905863 -0.118405 0)
(-0.100202 -0.158574 0)
(-0.23031 -0.278637 0)
(-0.22709 -0.2419 0)
(0.251774 0.172873 0)
(0.253603 0.147211 0)
(0.227303 0.137151 0)
(0.180507 0.113964 0)
(0.128246 0.0796932 0)
(0.0821698 0.0422915 0)
(0.0452178 0.00658267 0)
(0.00726649 -0.0317424 0)
(-0.0376088 -0.0720672 0)
(-0.0797343 -0.105287 0)
(-0.123049 -0.118453 0)
(-0.129386 -0.0708304 0)
(-0.254265 -0.141559 0)
(-0.527136 -0.244278 0)
(0.243142 0.14047 0)
(0.230761 0.180297 0)
(0.207605 0.169143 0)
(0.171073 0.15085 0)
(0.125216 0.119628 0)
(0.0807341 0.0814667 0)
(0.0431286 0.0431308 0)
(0.00923813 0.00414503 0)
(-0.0353477 -0.0329364 0)
(-0.0822399 -0.0705029 0)
(-0.125564 -0.0990088 0)
(-0.178551 -0.101793 0)
(-0.18407 -0.0315473 0)
(-0.736263 -0.236288 0)
(0.128455 0.0959112 0)
(0.205113 0.153042 0)
(0.186825 0.197963 0)
(0.156331 0.186798 0)
(0.117839 0.161202 0)
(0.0764723 0.125112 0)
(0.038885 0.0848021 0)
(0.00372955 0.0446682 0)
(-0.0359808 0.0089523 0)
(-0.0829072 -0.0303482 0)
(-0.128892 -0.0678502 0)
(-0.174324 -0.0946143 0)
(-0.245093 -0.10324 0)
(-0.205078 -0.129728 0)
(-1.69276 -0.246358 0)
(0.0646627 0.0279528 0)
(0.132617 0.129871 0)
(0.163376 0.194918 0)
(0.139025 0.219109 0)
(0.10563 0.201728 0)
(0.0685948 0.170804 0)
(0.0317788 0.131655 0)
(-0.003512 0.0926576 0)
(-0.0416894 0.0540037 0)
(-0.0848455 0.0138543 0)
(-0.129747 -0.0285232 0)
(-0.173543 -0.0675572 0)
(-0.220377 -0.102592 0)
(-0.294201 -0.147031 0)
(-0.0867017 -0.239887 0)
(-0.468317 0.057734 0)
(0.114658 0.111086 0)
(0.114341 0.184144 0)
(0.118801 0.230337 0)
(0.0903348 0.238018 0)
(0.0567442 0.215242 0)
(0.0218418 0.180864 0)
(-0.0131859 0.142833 0)
(-0.0491046 0.102826 0)
(-0.0885171 0.0610428 0)
(-0.130445 0.0163894 0)
(-0.171267 -0.0291962 0)
(-0.209754 -0.074374 0)
(-0.244776 -0.126744 0)
(-0.251329 -0.196996 0)
(0.038136 -0.226083 0)
(0.0397306 0.0984747 0)
(0.0907357 0.16975 0)
(0.0810501 0.226642 0)
(0.072408 0.25665 0)
(0.0420697 0.254786 0)
(0.00917227 0.228596 0)
(-0.0246083 0.19417 0)
(-0.0585246 0.154183 0)
(-0.094119 0.11129 0)
(-0.131577 0.0649776 0)
(-0.16878 0.0160695 0)
(-0.202307 -0.0343165 0)
(-0.22598 -0.0879338 0)
(-0.224459 -0.147645 0)
(-0.147951 -0.196007 0)
(0.0761156 -0.104927 0)
(0.259692 -0.00551331 0)
(0.00482286 -0.0337046 0)
(0.00363039 0.0438876 0)
(0.0578819 0.212347 0)
(0.0415878 0.257806 0)
(0.0260679 0.277937 0)
(-0.00536843 0.271585 0)
(-0.0372269 0.243166 0)
(-0.0688812 0.206161 0)
(-0.100994 0.16348 0)
(-0.133964 0.116362 0)
(-0.166596 0.0653973 0)
(-0.196189 0.0121569 0)
(-0.216486 -0.0428388 0)
(-0.21385 -0.0975376 0)
(-0.171521 -0.14088 0)
(-0.0635471 -0.157931 0)
(0.0387383 -0.154579 0)
(0.544606 0.130929 0)
(-0.094223 -0.156844 0)
(0.0494381 0.526935 0)
(-0.0666557 0.00596888 0)
(9.5356e-05 0.108674 0)
(0.0247475 0.243133 0)
(0.000822033 0.281629 0)
(-0.0188783 0.295488 0)
(-0.0492103 0.284732 0)
(-0.0790546 0.254677 0)
(-0.108009 0.215154 0)
(-0.136788 0.168806 0)
(-0.164956 0.11712 0)
(-0.190417 0.0619232 0)
(-0.209308 0.00528916 0)
(-0.210155 -0.049307 0)
(-0.18341 -0.0890632 0)
(-0.124442 -0.122419 0)
(-0.0201035 -0.154579 0)
(0.0526614 0.537682 0)
(0.295647 -0.285233 0)
(-0.322728 0.619122 0)
(-0.130142 0.0104975 0)
(-0.0179411 -0.0127179 0)
(-0.0216013 0.0167481 0)
(-0.0151689 0.139271 0)
(-0.00758443 0.259575 0)
(-0.0359389 0.296697 0)
(-0.0583875 0.306727 0)
(-0.0867991 0.293321 0)
(-0.113733 0.261764 0)
(-0.13894 0.219363 0)
(-0.162871 0.168977 0)
(-0.184608 0.113129 0)
(-0.201161 0.0548775 0)
(-0.206511 -0.00176295 0)
(-0.189057 -0.0443688 0)
(-0.158944 -0.0752695 0)
(-0.0753214 -0.165409 0)
(-0.0165308 0.444658 0)
(0.886243 0.760525 0)
(-0.117169 0.000755829 0)
(0.00566098 -0.00542221 0)
(-0.0241923 -0.00848333 0)
(-0.0250103 -0.00827426 0)
(-0.0229783 0.0332837 0)
(-0.0297993 0.150793 0)
(-0.0356097 0.263843 0)
(-0.0660156 0.302326 0)
(-0.0902021 0.310997 0)
(-0.115961 0.296177 0)
(-0.138976 0.263103 0)
(-0.159314 0.217663 0)
(-0.177358 0.163485 0)
(-0.191847 0.104504 0)
(-0.198908 0.0457406 0)
(-0.190259 -0.00432862 0)
(-0.174753 -0.0238883 0)
(-0.117653 -0.184672 0)
(-0.069437 0.454633 0)
(-0.0806529 -0.00253292 0)
(0.0308332 0.00270904 0)
(-0.00677044 -0.00464647 0)
(-0.0265646 -0.00356378 0)
(-0.0358225 -0.0025594 0)
(-0.0323912 0.00555433 0)
(-0.0298988 0.0454962 0)
(-0.042339 0.152237 0)
(-0.0578646 0.25786 0)
(-0.0885868 0.298737 0)
(-0.112868 0.307866 0)
(-0.135013 0.292571 0)
(-0.153084 0.258014 0)
(-0.167802 0.209646 0)
(-0.179724 0.152321 0)
(-0.187338 0.0919957 0)
(-0.185778 0.0363295 0)
(-0.176443 0.0261804 0)
(-0.149271 -0.202417 0)
(-0.104857 0.501153 0)
(0.0280155 0.00406853 0)
(0.00727293 0.00361441 0)
(-0.000416257 -0.00310759 0)
(-0.0336066 -0.000373382 0)
(-0.0429844 0.00411039 0)
(-0.0431482 0.0059896 0)
(-0.0389637 0.016622 0)
(-0.0380036 0.0533012 0)
(-0.052616 0.146529 0)
(-0.0737002 0.24378 0)
(-0.103125 0.287065 0)
(-0.125492 0.297724 0)
(-0.142844 0.282518 0)
(-0.155205 0.246456 0)
(-0.164284 0.195332 0)
(-0.170978 0.1359 0)
(-0.173362 0.0767196 0)
(-0.169111 0.0581144 0)
(-0.165561 -0.20382 0)
(-0.12885 0.550786 0)
(-0.00306511 0.00123761 0)
(0.00376562 0.00268797 0)
(0.00386269 -0.0016154 0)
(-0.0411241 0.0013638 0)
(-0.0487312 0.00788079 0)
(-0.0504471 0.0100162 0)
(-0.0479079 0.0142119 0)
(-0.0449191 0.0253444 0)
(-0.0456011 0.0570503 0)
(-0.0601918 0.135886 0)
(-0.0829819 0.224038 0)
(-0.109318 0.269143 0)
(-0.127595 0.281689 0)
(-0.138974 0.266586 0)
(-0.145471 0.228691 0)
(-0.149969 0.175031 0)
(-0.15345 0.115167 0)
(-0.154102 0.0821426 0)
(-0.165498 -0.168627 0)
(-0.140746 0.582427 0)
(-0.00637285 -0.000271362 0)
(0.000390227 0.00216183 0)
(0.013137 -0.00395603 0)
(-0.0471357 0.0014349 0)
(-0.0542876 0.00946756 0)
(-0.0562954 0.0129211 0)
(-0.0546076 0.016391 0)
(-0.0514285 0.0212338 0)
(-0.0497172 0.0311622 0)
(-0.0515868 0.057345 0)
(-0.0646196 0.122274 0)
(-0.0857853 0.2011 0)
(-0.106945 0.247169 0)
(-0.118932 0.261211 0)
(-0.123591 0.245452 0)
(-0.125144 0.205113 0)
(-0.127195 0.149538 0)
(-0.130771 0.105258 0)
(-0.151415 -0.127355 0)
(-0.13932 0.571709 0)
(-0.00507253 -0.000813029 0)
(-0.00500402 -0.00198328 0)
(0.0129391 -0.00721827 0)
(-0.0529058 0.00108345 0)
(-0.0597183 0.00930134 0)
(-0.0614826 0.0141576 0)
(-0.0599251 0.0182023 0)
(-0.0565586 0.0218108 0)
(-0.0536733 0.0261367 0)
(-0.0529535 0.0341231 0)
(-0.0552399 0.0549444 0)
(-0.0654749 0.107401 0)
(-0.0820573 0.177277 0)
(-0.0955811 0.223307 0)
(-0.0994086 0.237499 0)
(-0.0978137 0.219689 0)
(-0.096514 0.176425 0)
(-0.0996175 0.126927 0)
(-0.124766 -0.0886205 0)
(-0.123129 0.561475 0)
(-0.00357934 -0.00186224 0)
(-0.00425419 -0.00385261 0)
(0.0075127 -0.012672 0)
(-0.05787 0.000607545 0)
(-0.0650158 0.00844175 0)
(-0.0663253 0.0139119 0)
(-0.0643583 0.0187952 0)
(-0.0605321 0.0225002 0)
(-0.0568227 0.0255033 0)
(-0.0545703 0.0287302 0)
(-0.0543461 0.0346079 0)
(-0.0560665 0.0506971 0)
(-0.0621495 0.0927357 0)
(-0.071106 0.15457 0)
(-0.0742685 0.19907 0)
(-0.0695305 0.211281 0)
(-0.0637941 0.189904 0)
(-0.0630642 0.145337 0)
(-0.0867003 -0.0546213 0)
(-0.0938985 0.557286 0)
(-0.000257061 -0.000810348 0)
(0.000264327 -0.00846983 0)
(-0.00759499 -0.0134953 0)
(-0.0617393 5.31671e-05 0)
(-0.0698108 0.00709181 0)
(-0.0708679 0.0127337 0)
(-0.0682427 0.0181861 0)
(-0.0635946 0.022332 0)
(-0.0590715 0.025195 0)
(-0.055772 0.0272814 0)
(-0.0540422 0.0292424 0)
(-0.0536105 0.0331722 0)
(-0.0534577 0.0454802 0)
(-0.0532534 0.0795247 0)
(-0.0507878 0.134248 0)
(-0.0418103 0.175439 0)
(-0.0305575 0.182573 0)
(-0.0243723 0.155665 0)
(-0.0396628 -0.0282358 0)
(-0.0547272 0.559804 0)
(0.00240755 -0.00314287 0)
(0.000340532 -0.00906478 0)
(-0.012523 -0.00966855 0)
(-0.0643079 -0.000540277 0)
(-0.0738201 0.00528975 0)
(-0.0749609 0.0108659 0)
(-0.071697 0.016621 0)
(-0.0659771 0.0211865 0)
(-0.060521 0.0242337 0)
(-0.056351 0.0262114 0)
(-0.0535867 0.027341 0)
(-0.0518849 0.0281028 0)
(-0.0501994 0.0304501 0)
(-0.0459984 0.0401355 0)
(-0.0352998 0.0684934 0)
(-0.017135 0.11727 0)
(0.00401329 0.148725 0)
(0.0202807 0.149107 0)
(0.0225102 -0.0180766 0)
(-0.00397008 0.565845 0)
(0.0061075 -0.00430679 0)
(0.00495949 -0.00517626 0)
(-0.0163925 -0.00721223 0)
(-0.0654591 -0.00110197 0)
(-0.0768333 0.00300154 0)
(-0.0784436 0.00839634 0)
(-0.0747159 0.0142561 0)
(-0.0677814 0.0191687 0)
(-0.0612955 0.0224223 0)
(-0.0563423 0.0245777 0)
(-0.0527779 0.0257922 0)
(-0.0501497 0.0260432 0)
(-0.0475294 0.0257986 0)
(-0.0427192 0.0270446 0)
(-0.0301869 0.0349982 0)
(-0.00167435 0.0596795 0)
(0.0324778 0.0993499 0)
(0.0597465 0.125948 0)
(0.0789571 -0.035717 0)
(0.0600294 0.556206 0)
(0.0110413 -0.00284944 0)
(0.00673611 -0.00310188 0)
(-0.0188089 -0.00504042 0)
(-0.0649167 -0.00143255 0)
(-0.0786566 0.000164352 0)
(-0.0811764 0.00532248 0)
(-0.0772765 0.0111532 0)
(-0.0690353 0.0163918 0)
(-0.0614481 0.0197888 0)
(-0.0558013 0.0221507 0)
(-0.0516187 0.0237055 0)
(-0.0482623 0.0242632 0)
(-0.0448409 0.0237487 0)
(-0.0395076 0.0227247 0)
(-0.0277895 0.0229718 0)
(0.000801199 0.0296131 0)
(0.0484007 0.0572701 0)
(0.090851 0.0976468 0)
(0.126468 -0.0690936 0)
(0.115864 0.541105 0)
(0.0142117 -0.0019468 0)
(0.00701351 -0.00233777 0)
(-0.0198187 -0.00273412 0)
(-0.0608902 -0.00108014 0)
(-0.078893 -0.00322511 0)
(-0.0830051 0.00158678 0)
(-0.0793809 0.00729692 0)
(-0.0697599 0.0129374 0)
(-0.0609871 0.0164125 0)
(-0.0547493 0.018918 0)
(-0.0501191 0.0208443 0)
(-0.0462014 0.0219308 0)
(-0.0420603 0.0218722 0)
(-0.0360447 0.0206423 0)
(-0.0243865 0.0185669 0)
(0.00136071 0.0175185 0)
(0.0522747 0.0323525 0)
(0.109233 0.0758933 0)
(0.160952 -0.109313 0)
(0.16647 0.534574 0)
(0.016314 -0.00158766 0)
(0.00628721 -0.00247685 0)
(-0.0192361 -6.26871e-06 0)
(-0.0515167 0.000171173 0)
(-0.0769313 -0.0070927 0)
(-0.083612 -0.00290963 0)
(-0.0810495 0.00261821 0)
(-0.0700123 0.00884741 0)
(-0.0599066 0.0123775 0)
(-0.053185 0.0149312 0)
(-0.0482721 0.0171792 0)
(-0.0439443 0.0188106 0)
(-0.0391505 0.0194049 0)
(-0.0323318 0.0186139 0)
(-0.0201338 0.0161347 0)
(0.00467114 0.0125099 0)
(0.0534088 0.0190427 0)
(0.117598 0.062668 0)
(0.180792 -0.145876 0)
(0.205807 0.536165 0)
(0.0181296 -0.00150764 0)
(0.0052089 -0.0020093 0)
(-0.0194481 0.00792879 0)
(-0.044122 -0.00415695 0)
(-0.0722973 -0.011832 0)
(-0.0826413 -0.00837576 0)
(-0.082225 -0.00299494 0)
(-0.0699066 0.0041295 0)
(-0.0581992 0.00775886 0)
(-0.0510979 0.0102552 0)
(-0.0460581 0.0127472 0)
(-0.0414519 0.0148527 0)
(-0.0360813 0.016112 0)
(-0.0283634 0.0159622 0)
(-0.0152531 0.0137125 0)
(0.00973149 0.00948641 0)
(0.0561416 0.0117657 0)
(0.121832 0.0539644 0)
(0.18924 -0.172164 0)
(0.231538 0.540906 0)
(0.0199604 -0.00136295 0)
(0.00308204 0.00581483 0)
(-0.0183826 0.00932708 0)
(-0.0340471 -0.00749216 0)
(-0.0665732 -0.0199358 0)
(-0.0798132 -0.0153279 0)
(-0.0828657 -0.00978098 0)
(-0.069609 -0.00124394 0)
(-0.0558414 0.00262822 0)
(-0.0484623 0.00495287 0)
(-0.0434453 0.00759794 0)
(-0.03867 0.0100739 0)
(-0.0327904 0.0118982 0)
(-0.0241585 0.0124448 0)
(-0.00989784 0.0106743 0)
(0.0156705 0.00658162 0)
(0.0603476 0.00736744 0)
(0.124958 0.0469119 0)
(0.191024 -0.186944 0)
(0.245773 0.543298 0)
(0.0205915 0.000644786 0)
(0.000216813 0.0110567 0)
(-0.0366317 0.006057 0)
(0.102907 0.00859649 0)
(-0.0582007 -0.0305834 0)
(-0.0749166 -0.0241966 0)
(-0.0834017 -0.0183364 0)
(-0.0695122 -0.00735938 0)
(-0.0528038 -0.00292177 0)
(-0.0451823 -0.000908083 0)
(-0.0403719 0.00179204 0)
(-0.0355162 0.00450297 0)
(-0.0291912 0.00675596 0)
(-0.0196456 0.00789046 0)
(-0.00415956 0.00671792 0)
(0.0221152 0.00308349 0)
(0.0652666 0.0040445 0)
(0.127533 0.0404114 0)
(0.189518 -0.192222 0)
(0.252287 0.540306 0)
(0.0164485 0.00446864 0)
(-0.0344381 0.0121524 0)
(0.138726 0.00861658 0)
(-0.0381656 -0.045086 0)
(-0.0663726 -0.0339236 0)
(-0.0842414 -0.0293181 0)
(-0.0703515 -0.014538 0)
(-0.04946 -0.00870967 0)
(-0.041497 -0.00712621 0)
(-0.0367403 -0.00455116 0)
(-0.0318162 -0.00177546 0)
(-0.0251004 0.000746303 0)
(-0.014732 0.00228534 0)
(0.00215227 0.00153202 0)
(0.0291975 -0.00107868 0)
(0.0710218 0.00111961 0)
(0.129581 0.0332339 0)
(0.186584 -0.191203 0)
(0.254145 0.5319 0)
(-0.020627 0.0098068 0)
(0.118508 -0.000763961 0)
(-0.021384 -0.13298 0)
(-0.0511942 -0.043253 0)
(-0.0852278 -0.0431847 0)
(-0.0735706 -0.0234702 0)
(-0.0456085 -0.0148065 0)
(-0.0373106 -0.0137308 0)
(-0.0328619 -0.0111988 0)
(-0.0279583 -0.00840344 0)
(-0.0206732 -0.00579601 0)
(-0.00924991 -0.00407367 0)
(0.00870794 -0.004272 0)
(0.0358445 -0.00551506 0)
(0.0758627 -0.0017496 0)
(0.130455 0.0255388 0)
(0.182801 -0.186348 0)
(0.253077 0.519964 0)
(0.0743943 -0.00438559 0)
(0.0555272 -0.159192 0)
(-0.0304605 -0.0530852 0)
(-0.0837972 -0.0600993 0)
(-0.0813594 -0.0351671 0)
(-0.0414558 -0.0212734 0)
(-0.0325072 -0.0209336 0)
(-0.0285972 -0.0182817 0)
(-0.0239181 -0.0153222 0)
(-0.0164441 -0.0124905 0)
(-0.00450304 -0.0104217 0)
(0.0138631 -0.00989239 0)
(0.040861 -0.0098035 0)
(0.0793292 -0.00451929 0)
(0.130237 0.0187047 0)
(0.17817 -0.180049 0)
(0.249903 0.506457 0)
(-0.117112 -0.175674 0)
(0.0311019 -0.0115283 0)
(-0.0748371 -0.0742256 0)
(-0.0937394 -0.0513416 0)
(-0.0375751 -0.0278156 0)
(-0.0270351 -0.028961 0)
(-0.0239785 -0.0259646 0)
(-0.0197599 -0.0226125 0)
(-0.0123511 -0.0193967 0)
(-0.000255171 -0.0168377 0)
(0.0180596 -0.015402 0)
(0.0445292 -0.0139789 0)
(0.0813878 -0.00723328 0)
(0.128916 0.0127579 0)
(0.17294 -0.172869 0)
(0.245079 0.493477 0)
(-0.100506 0.062383 0)
(-0.0662773 -0.0548876 0)
(-0.105929 -0.0731576 0)
(-0.0333754 -0.033879 0)
(-0.0209628 -0.0379464 0)
(-0.019037 -0.0344769 0)
(-0.0155928 -0.0303712 0)
(-0.00851202 -0.0265596 0)
(0.00341711 -0.0233964 0)
(0.0213735 -0.0209671 0)
(0.0470405 -0.0182038 0)
(0.0821865 -0.010022 0)
(0.126615 0.00732454 0)
(0.167407 -0.165865 0)
(0.238721 0.480823 0)
(-0.143077 0.0991382 0)
(-0.137383 -0.0959853 0)
(-0.0207834 -0.0436785 0)
(-0.0143844 -0.0478955 0)
(-0.0140282 -0.0442093 0)
(-0.0115499 -0.0387578 0)
(-0.00502839 -0.034027 0)
(0.00643813 -0.030066 0)
(0.0238335 -0.0266773 0)
(0.0485127 -0.0225919 0)
(0.0818903 -0.0130167 0)
(0.123486 0.00208315 0)
(0.161668 -0.160014 0)
(0.231042 0.469434 0)
(-0.333712 -0.105096 0)
(0.0317875 -0.0825145 0)
(-0.00624648 -0.0609179 0)
(-0.00993326 -0.0559989 0)
(-0.00813449 -0.048162 0)
(-0.00205561 -0.0418565 0)
(0.00879743 -0.0368996 0)
(0.0254642 -0.0325349 0)
(0.0490361 -0.0271798 0)
(0.0806266 -0.0163101 0)
(0.119604 -0.00322215 0)
(0.155584 -0.155538 0)
(0.222167 0.460537 0)
(-0.263148 -0.145273 0)
(0.063581 -0.0883296 0)
(-0.00718316 -0.0719979 0)
(-0.00680716 -0.0595367 0)
(-0.000166731 -0.0502962 0)
(0.0103471 -0.0438348 0)
(0.0262483 -0.038443 0)
(0.0486738 -0.0319067 0)
(0.0784862 -0.0199332 0)
(0.114971 -0.00878371 0)
(0.148874 -0.152295 0)
(0.212081 0.454397 0)
(-0.150044 -0.134729 0)
(0.053515 -0.0936212 0)
(-0.00650224 -0.0746575 0)
(-0.000771511 -0.0600936 0)
(0.0105477 -0.050926 0)
(0.0260408 -0.0441859 0)
(0.0474288 -0.0365774 0)
(0.0755282 -0.0238173 0)
(0.109547 -0.0147124 0)
(0.141263 -0.149994 0)
(0.200736 0.450707 0)
(-0.174514 -0.129438 0)
(0.0406939 -0.093433 0)
(-0.00246062 -0.072724 0)
(0.00828475 -0.0587321 0)
(0.0243175 -0.0495923 0)
(0.0451715 -0.0408083 0)
(0.0717729 -0.0277175 0)
(0.103295 -0.0209915 0)
(0.132546 -0.148314 0)
(0.188068 0.448914 0)
(-0.175621 -0.132641 0)
(0.0380947 -0.0904166 0)
(0.00461968 -0.0688183 0)
(0.0200742 -0.0549924 0)
(0.0413901 -0.0441032 0)
(0.0671575 -0.0310839 0)
(0.0962178 -0.0273744 0)
(0.122634 -0.146969 0)
(0.17396 0.448447 0)
(-0.170169 -0.139584 0)
(0.0380091 -0.0857233 0)
(0.0140519 -0.0622101 0)
(0.0350178 -0.0462952 0)
(0.0613598 -0.0329423 0)
(0.0884108 -0.0331892 0)
(0.111631 -0.145753 0)
(0.158228 0.448883 0)
(-0.160041 -0.145191 0)
(0.0359386 -0.0774721 0)
(0.0257616 -0.0491507 0)
(0.053518 -0.0320724 0)
(0.0801097 -0.0369955 0)
(0.0999921 -0.14455 0)
(0.140624 0.450075 0)
(-0.14491 -0.146773 0)
(0.0315652 -0.0617584 0)
(0.0418193 -0.0291646 0)
(0.0716981 -0.0361902 0)
(0.0888473 -0.143348 0)
(0.120866 0.452315 0)
(-0.122358 -0.138726 0)
(0.0308833 -0.0366757 0)
(0.0620049 -0.0287814 0)
(0.0807018 -0.142154 0)
(0.098579 0.456562 0)
(-0.0876281 -0.120031 0)
(0.0483174 -0.0294797 0)
(0.0791042 -0.141458 0)
(0.0731625 0.464539 0)
(-0.0348207 -0.125923 0)
(0.101026 -0.156137 0)
(0.0463894 0.47861 0)
(0.0283037 -0.280081 0)
(0.0775847 0.516299 0)
(-0.259067 0.769944 0)
)
;

boundaryField
{
    floor
    {
        type            noSlip;
    }
    ceiling
    {
        type            noSlip;
    }
    sWall
    {
        type            noSlip;
    }
    nWall
    {
        type            noSlip;
    }
    sideWalls
    {
        type            empty;
    }
    glass1
    {
        type            noSlip;
    }
    glass2
    {
        type            noSlip;
    }
    sun
    {
        type            noSlip;
    }
    Table_master
    {
        type            noSlip;
    }
    Table_slave
    {
        type            noSlip;
    }
    inlet
    {
        type            fixedValue;
        value           uniform (0.1 -0.1 0);
    }
    outlet
    {
        type            zeroGradient;
    }
}


// ************************************************************************* //
