/*--------------------------------*- C++ -*----------------------------------*\
  =========                 |
  \\      /  F ield         | OpenFOAM: The Open Source CFD Toolbox
   \\    /   O peration     | Website:  https://openfoam.org
    \\  /    A nd           | Version:  6
     \\/     M anipulation  |
\*---------------------------------------------------------------------------*/
FoamFile
{
    version     2.0;
    format      ascii;
    class       volScalarField;
    location    "100";
    object      alphat;
}
// * * * * * * * * * * * * * * * * * * * * * * * * * * * * * * * * * * * * * //

dimensions      [1 -1 -1 0 0 0 0];

internalField   nonuniform List<scalar> 
458
(
0.000919029
0.000943006
0.000700698
0.000674314
0.000690644
0.000712157
0.000735181
0.000759569
0.000786003
0.000813445
0.000838577
0.000860098
0.00087764
0.000891917
0.0008997
0.000428768
0.00046788
0.000474577
0.000385232
0.000298791
0.000258853
0.000237004
0.000218926
0.000206606
0.000204589
0.000220875
0.000255255
0.000310122
0.000408155
0.000529773
0.000594486
0.000579692
0.000513383
0.00163505
0.00322047
0.00173799
0.00276059
0.00313403
0.00326502
0.00339362
0.00352058
0.00362232
0.00368817
0.00369555
0.00360521
0.00335207
0.0028272
0.00194457
0.00102115
0.000943062
0.000759448
0.000513933
0.00120725
0.00130059
0.00107051
0.000689373
0.000506976
0.000426831
0.000400442
0.000371266
0.000354853
0.000403044
0.000591673
0.00101425
0.00150772
0.00212608
0.00202931
0.0018461
0.000610252
0.00227969
0.00588219
0.00232069
0.00322317
0.00461503
0.00500509
0.00519874
0.00535452
0.00547274
0.0055468
0.00555607
0.00546294
0.00521173
0.0047287
0.00397598
0.00304441
0.00204578
0.00105716
0.000921107
0.00229844
0.00192669
0.00144145
0.000953104
0.000292497
0.000228391
0.000246334
0.000305579
0.000398808
0.000502106
0.000604298
0.000714517
0.000852906
0.00238002
0.0020732
0.00151012
0.000773793
0.00285204
0.00882921
0.00366426
0.00313807
0.00505005
0.00589822
0.00626299
0.00652596
0.00674303
0.00690859
0.00702735
0.00706736
0.00697187
0.006653
0.00600459
0.00495199
0.00353363
0.0020966
0.00123948
0.0029085
0.00297335
0.00248605
0.00193168
0.0014044
0.000951946
0.000945647
0.000940161
0.000935471
0.0009346
0.000942244
0.000965151
0.00101388
0.00111219
0.00340644
0.00368274
0.00339039
0.00119018
0.00335426
0.0117109
0.00590808
0.00370644
0.00472196
0.0058376
0.0064863
0.00695043
0.00733505
0.00766876
0.0079887
0.00828938
0.00854207
0.00870212
0.0087147
0.00853451
0.00814114
0.00757007
0.00697513
0.00674213
0.00638004
0.0061319
0.00590886
0.00562729
0.00534718
0.00514565
0.00491704
0.00466526
0.00441871
0.00422097
0.00411342
0.00411348
0.0042109
0.00440766
0.00443141
0.00434109
0.00376472
0.00161551
0.00142872
0.00126748
0.00380461
0.01412
0.00922164
0.00582511
0.00476038
0.00505206
0.00575887
0.00643638
0.00700762
0.00752011
0.00805575
0.00861057
0.00915879
0.00966318
0.0100802
0.0103681
0.010487
0.0103993
0.0101121
0.00971283
0.00927583
0.00889374
0.00857935
0.00829074
0.00798573
0.00763377
0.00720994
0.00671149
0.00616464
0.00563325
0.00519951
0.00491064
0.00474501
0.0046366
0.00452059
0.004337
0.00395128
0.00327555
0.00240572
0.00127376
0.00417566
0.0154154
0.0126921
0.00919472
0.00660015
0.00527697
0.00513174
0.00552711
0.00602836
0.0065762
0.00721765
0.00795162
0.00873525
0.00950831
0.0102129
0.0107964
0.0112031
0.0113864
0.0113324
0.0110938
0.0107666
0.01044
0.010154
0.00989658
0.00963326
0.00932907
0.00895162
0.00846701
0.0078522
0.00712673
0.00637928
0.00572594
0.0052236
0.0048401
0.00449592
0.00410206
0.00357593
0.00293926
0.00228811
0.0012536
0.00417104
0.0135396
0.0122304
0.0112376
0.00918094
0.00729437
0.00612643
0.00559853
0.00551019
0.00568719
0.00607201
0.00668112
0.00747376
0.00836903
0.00927414
0.0101021
0.0107427
0.0111637
0.0113473
0.0113255
0.0111744
0.0109766
0.0107862
0.0106189
0.0104672
0.0103169
0.0101474
0.00992243
0.00958698
0.00908553
0.00841638
0.00764054
0.00683837
0.00608037
0.00537803
0.00472838
0.0040534
0.00345793
0.00302587
0.00166783
0.00395848
0.00454868
0.0111679
0.0117486
0.0101047
0.00834641
0.00698519
0.00607973
0.00555831
0.00533137
0.00536734
0.0056553
0.0061651
0.00685629
0.00766529
0.00850301
0.00926371
0.00986888
0.0102736
0.0104796
0.0105318
0.0104943
0.0104225
0.0103503
0.0102956
0.0102701
0.0102815
0.010325
0.0103704
0.0103492
0.0101457
0.00974862
0.00925102
0.00882452
0.00857085
0.00813222
0.00710699
0.00560051
0.00567101
0.00185721
0.0237521
0.0213928
0.0121004
0.00922711
0.00776283
0.00682142
0.00621323
0.00584509
0.00566029
0.00562634
0.00573056
0.00597182
0.00634346
0.00682383
0.00736751
0.00791071
0.00838646
0.00874733
0.00898054
0.00910404
0.00915084
0.00915583
0.00915027
0.00916223
0.0092178
0.00933761
0.00952554
0.00974661
0.0098929
0.00990289
0.00974481
0.00946372
0.00911399
0.00856763
0.00762569
0.00630848
0.00543672
0.00180491
0.00835524
0.0167661
0.011526
0.00884137
0.00739952
0.00650589
0.00592949
0.00556591
0.0053591
0.0052756
0.00530008
0.00541907
0.00561778
0.00588359
0.00619884
0.00653631
0.00686099
0.00713962
0.00735081
0.00748293
0.00753908
0.00754012
0.00751051
0.00747407
0.00745234
0.00746337
0.00751833
0.00760846
0.00770118
0.007759
0.00773841
0.00761168
0.00735725
0.00680861
0.00600935
0.00496328
0.00466801
0.0016188
0.00208812
0.00333032
0.00601201
0.00542134
0.00442872
0.0036712
0.00312864
0.00273175
0.00243232
0.00220082
0.00201929
0.00187669
0.00176562
0.00168083
0.0016188
0.00157636
0.00155046
0.0015377
0.00153402
0.00153501
0.00153663
0.0015368
0.00153453
0.00152898
0.00152033
0.00150935
0.00149712
0.00148482
0.00147353
0.00146501
0.00146312
0.00146512
0.00146583
0.00145746
0.00143191
0.00140024
0.00135772
0.00130211
0.00130177
0.00120519
)
;

boundaryField
{
    floor
    {
        type            compressible::alphatWallFunction;
        Prt             0.85;
        value           nonuniform List<scalar> 
36
(
0.000128071
5.82036e-05
6.4275e-05
6.53064e-05
5.13578e-05
3.74583e-05
3.08603e-05
2.71925e-05
2.41215e-05
2.20058e-05
2.1647e-05
2.44272e-05
3.02284e-05
3.92813e-05
5.49642e-05
7.37672e-05
8.35407e-05
8.13181e-05
7.12661e-05
7.12652e-05
8.58791e-05
0.000109965
0.00016883
0.0002265
0.000201416
0.000179468
0.00012807
0.000145258
0.000134232
0.000107874
5.82029e-05
0.000107873
7.13482e-05
0.000150295
0.000131095
0.000175565
)
;
    }
    ceiling
    {
        type            compressible::alphatWallFunction;
        Prt             0.85;
        value           nonuniform List<scalar> 
43
(
0.000289012
0.000445909
0.000766309
0.000697197
0.000579347
0.000487638
0.000420777
0.00037111
0.000333138
0.00030344
0.000279916
0.000261275
0.000246647
0.000235411
0.000227149
0.000221472
0.000217997
0.000216279
0.000215779
0.000215905
0.000216119
0.000216137
0.000215827
0.00021508
0.000213916
0.000212438
0.000210793
0.000209135
0.000207612
0.000206463
0.000206207
0.000206477
0.000206571
0.00020544
0.000201988
0.0001977
0.000191927
0.000184344
0.000184294
0.00017104
0.000522518
0.000593587
0.00103446
)
;
    }
    sWall
    {
        type            compressible::alphatWallFunction;
        Prt             0.85;
        value           uniform 0.000288061;
    }
    nWall
    {
        type            compressible::alphatWallFunction;
        Prt             0.85;
        value           nonuniform List<scalar> 6(0.00017925 0.000180109 0.000177348 0.000251388 0.000226725 0.00017072);
    }
    sideWalls
    {
        type            empty;
    }
    glass1
    {
        type            compressible::alphatWallFunction;
        Prt             0.85;
        value           nonuniform List<scalar> 9(0.000127193 0.000223906 0.000307205 0.000379224 0.000441285 0.000496196 0.000540995 0.000540614 0.000515287);
    }
    glass2
    {
        type            compressible::alphatWallFunction;
        Prt             0.85;
        value           nonuniform List<scalar> 2(0.000232026 0.000256979);
    }
    sun
    {
        type            compressible::alphatWallFunction;
        Prt             0.85;
        value           nonuniform List<scalar> 
14
(
0.000130838
0.000134225
9.92861e-05
9.54024e-05
9.78095e-05
0.00010097
0.000104339
0.000107895
0.000111732
0.000115701
0.000119321
0.00012241
0.000124922
0.000126962
)
;
    }
    Table_master
    {
        type            compressible::alphatWallFunction;
        Prt             0.85;
        value           nonuniform List<scalar> 9(3.65432e-05 2.58442e-05 2.88506e-05 3.86335e-05 5.35769e-05 6.96346e-05 8.51151e-05 0.000101448 0.000121526);
    }
    Table_slave
    {
        type            compressible::alphatWallFunction;
        Prt             0.85;
        value           nonuniform List<scalar> 9(0.000135655 0.000134764 0.000133987 0.000133322 0.000133198 0.000134281 0.000137522 0.000144393 0.000158141);
    }
    inlet
    {
        type            fixedValue;
        value           uniform 1.94e-05;
    }
    outlet
    {
        type            zeroGradient;
    }
}


// ************************************************************************* //
