/*--------------------------------*- C++ -*----------------------------------*\
  =========                 |
  \\      /  F ield         | OpenFOAM: The Open Source CFD Toolbox
   \\    /   O peration     | Website:  https://openfoam.org
    \\  /    A nd           | Version:  6
     \\/     M anipulation  |
\*---------------------------------------------------------------------------*/
FoamFile
{
    version     2.0;
    format      ascii;
    class       volScalarField;
    location    "100";
    object      epsilon;
}
// * * * * * * * * * * * * * * * * * * * * * * * * * * * * * * * * * * * * * //

dimensions      [0 2 -3 0 0 0 0];

internalField   nonuniform List<scalar> 
458
(
0.000174991
0.000188416
7.72963e-05
6.89003e-05
7.40401e-05
8.11891e-05
8.93334e-05
9.85343e-05
0.000109197
0.000121051
0.000132633
0.000143118
0.00015206
0.000159606
0.000163821
1.76506e-05
2.29288e-05
2.39231e-05
1.27947e-05
5.97108e-06
3.8823e-06
2.97961e-06
2.34807e-06
1.97261e-06
1.91289e-06
2.40454e-06
3.71227e-06
6.66315e-06
1.52132e-05
3.33185e-05
4.71038e-05
4.36671e-05
3.03186e-05
0.000987951
0.00219718
0.000198673
6.02107e-05
5.49177e-05
5.93488e-05
6.53465e-05
7.2329e-05
8.05815e-05
9.03779e-05
0.000101668
0.000114605
0.000129011
0.00014441
0.000167355
0.000239556
0.000188597
9.84564e-05
3.04066e-05
6.89582e-05
4.88927e-05
2.23506e-05
9.30397e-06
3.46732e-06
2.35828e-06
2.23721e-06
2.78459e-06
4.65839e-06
8.65678e-06
1.55266e-05
2.92792e-05
5.33141e-05
6.98306e-05
7.35102e-05
9.02326e-05
5.09068e-05
0.00268405
0.00753049
0.000726981
0.000108557
6.665e-05
6.69238e-05
7.28635e-05
8.06514e-05
8.98748e-05
0.000100727
0.000113107
0.000127059
0.000142401
0.000158464
0.000175552
0.000197805
0.000223816
0.000265644
0.00017512
0.000160016
8.24213e-05
6.39399e-05
5.4785e-05
5.58976e-06
2.66046e-06
3.33027e-06
6.34872e-06
1.41326e-05
2.82774e-05
4.9405e-05
8.18062e-05
0.00013934
0.000104639
0.000105556
0.00011823
0.000103994
0.00526698
0.0157456
0.00196909
0.00023942
9.65123e-05
8.45538e-05
8.87187e-05
9.67978e-05
0.000106802
0.000118382
0.000131335
0.000145516
0.000160777
0.00017661
0.000192954
0.000212591
0.000243667
0.000307412
0.00042801
0.000198003
0.00012284
0.000112847
0.000122401
0.000145065
0.00019441
0.000190606
0.000187333
0.000184565
0.000184072
0.000188645
0.000202765
0.000235092
0.000310378
0.000201259
0.000237319
0.000297599
0.00038045
0.00858542
0.0253145
0.00423047
0.000615181
0.000187423
0.000128995
0.000122276
0.000127218
0.000136467
0.000148259
0.00016153
0.000176364
0.000192644
0.000209086
0.000223029
0.000231469
0.000231722
0.000221471
0.000196478
0.000150006
0.00012823
0.000122416
0.00012394
0.000128021
0.000132367
0.000134424
0.00013782
0.000143907
0.000154365
0.000171572
0.000198556
0.000238407
0.000292297
0.00035241
0.000445429
0.000567108
0.000673273
0.000955154
0.000660438
0.000461012
0.0125517
0.0327813
0.0079671
0.00182788
0.000593248
0.000299949
0.000224828
0.00020358
0.000199944
0.000203534
0.000210469
0.000221539
0.000237137
0.000256118
0.000275334
0.000290155
0.00029476
0.000282987
0.000254464
0.000219436
0.000192578
0.000177232
0.000171206
0.000170018
0.00017057
0.000172107
0.000175847
0.000183119
0.00019601
0.000217906
0.000253641
0.000308826
0.000388424
0.000495382
0.000631865
0.000787049
0.000902562
0.000913066
0.000518313
0.000467961
0.0166224
0.0348588
0.0141606
0.00571655
0.00250293
0.00114305
0.000656769
0.000463393
0.000374961
0.000327429
0.000301299
0.000290718
0.000293547
0.000307427
0.000328378
0.000350386
0.000364928
0.000363275
0.00034299
0.000311564
0.000280822
0.000258393
0.000245458
0.000239311
0.000237169
0.000238079
0.000242578
0.000251779
0.000267581
0.000293264
0.000334033
0.00039612
0.00048521
0.000603758
0.000747307
0.000894979
0.000998732
0.00100338
0.000881985
0.000446151
0.0166074
0.036671
0.0241296
0.0171897
0.00971084
0.00493782
0.00255285
0.00143787
0.000897295
0.000632708
0.00049423
0.000417642
0.00038031
0.000370907
0.000381622
0.000404906
0.00042799
0.000439587
0.000433173
0.000411544
0.000383956
0.000359142
0.000341148
0.000329905
0.000324051
0.000323073
0.00032768
0.000339487
0.000361287
0.000397654
0.000455693
0.000541151
0.000656648
0.000796479
0.000949416
0.00111294
0.00129873
0.00153132
0.00177907
0.00105451
0.0142416
0.0215793
0.0689601
0.0482973
0.0252855
0.0126203
0.00641944
0.00345051
0.00200475
0.00126148
0.000861256
0.000645817
0.00053243
0.000478811
0.000462946
0.000471395
0.000491725
0.000511568
0.000520659
0.000515416
0.000499517
0.000479518
0.000460487
0.000444847
0.000433347
0.000426467
0.00042512
0.000430799
0.000445853
0.000473869
0.000519283
0.000586624
0.000683564
0.000818481
0.00100035
0.00120551
0.00137518
0.00173721
0.0038139
0.0014571
0.211754
0.168725
0.0315057
0.0122178
0.00625728
0.00360553
0.0022727
0.00155311
0.00114325
0.000898502
0.000753159
0.000669971
0.000628091
0.000615136
0.000621854
0.000638954
0.000656601
0.000666952
0.000666798
0.000657151
0.000641144
0.000622329
0.000603551
0.000586877
0.000573911
0.000566032
0.000564565
0.000570659
0.00058514
0.000608201
0.00063875
0.000672427
0.000697503
0.000699986
0.000689224
0.000716206
0.00137149
0.0013361
0.138382
0.0889198
0.0271917
0.0114454
0.00610358
0.00377175
0.0025901
0.00193458
0.00155125
0.00132377
0.00119074
0.00111978
0.00109063
0.00108943
0.00110481
0.00112578
0.00114215
0.00114687
0.00113769
0.0011155
0.00108301
0.00104423
0.00100282
0.000961409
0.000921426
0.000883225
0.00084657
0.00081108
0.000772664
0.000732765
0.000694476
0.000659209
0.000626568
0.000595169
0.000565501
0.0005608
0.00139252
0.000964269
0.0021541
0.00874336
0.0514907
0.0375201
0.0203579
0.0115585
0.00713801
0.00474379
0.00334424
0.00247462
0.00190952
0.00153146
0.00127419
0.00109834
0.000980313
0.000904418
0.000859823
0.000838058
0.000831381
0.000832312
0.000834313
0.000833956
0.000829642
0.000820089
0.000805682
0.000787815
0.000768318
0.000749045
0.000731606
0.000718537
0.000715286
0.000717754
0.000718333
0.000705678
0.000668885
0.000625208
0.000569751
0.000502387
0.000501793
0.000398163
)
;

boundaryField
{
    floor
    {
        Cmu             0.09;
        kappa           0.41;
        E               9.8;
        type            epsilonWallFunction;
        value           nonuniform List<scalar> 
36
(
0.000163821
1.76506e-05
2.29288e-05
2.39231e-05
1.27947e-05
5.97108e-06
3.8823e-06
2.97961e-06
2.34807e-06
1.97261e-06
1.91289e-06
2.40454e-06
3.71227e-06
6.66315e-06
1.52132e-05
3.33185e-05
4.71038e-05
4.36671e-05
3.03186e-05
3.03186e-05
5.09068e-05
0.000103994
0.00038045
0.000955154
0.000660438
0.000461012
0.000163821
0.000239556
0.000188597
9.84564e-05
1.76506e-05
9.84564e-05
3.04066e-05
0.000265644
0.00017512
0.00042801
)
;
    }
    ceiling
    {
        Cmu             0.09;
        kappa           0.41;
        E               9.8;
        type            epsilonWallFunction;
        value           nonuniform List<scalar> 
43
(
0.0021541
0.00874336
0.0514907
0.0375201
0.0203579
0.0115585
0.00713801
0.00474379
0.00334424
0.00247462
0.00190952
0.00153146
0.00127419
0.00109834
0.000980313
0.000904418
0.000859823
0.000838058
0.000831381
0.000832312
0.000834313
0.000833956
0.000829642
0.000820089
0.000805682
0.000787815
0.000768318
0.000749045
0.000731606
0.000718537
0.000715286
0.000717754
0.000718333
0.000705678
0.000668885
0.000625208
0.000569751
0.000502387
0.000501793
0.000398163
0.0142416
0.0215793
0.138382
)
;
    }
    sWall
    {
        Cmu             0.09;
        kappa           0.41;
        E               9.8;
        type            epsilonWallFunction;
        value           uniform 0.0021541;
    }
    nWall
    {
        Cmu             0.09;
        kappa           0.41;
        E               9.8;
        type            epsilonWallFunction;
        value           nonuniform List<scalar> 6(0.000461012 0.000467961 0.000446151 0.0013361 0.000964269 0.000398163);
    }
    sideWalls
    {
        type            empty;
    }
    glass1
    {
        Cmu             0.09;
        kappa           0.41;
        E               9.8;
        type            epsilonWallFunction;
        value           nonuniform List<scalar> 9(0.000174991 0.000987951 0.00268405 0.00526698 0.00858542 0.0125517 0.0166224 0.0166074 0.0142416);
    }
    glass2
    {
        Cmu             0.09;
        kappa           0.41;
        E               9.8;
        type            epsilonWallFunction;
        value           nonuniform List<scalar> 2(0.00105451 0.0014571);
    }
    sun
    {
        Cmu             0.09;
        kappa           0.41;
        E               9.8;
        type            epsilonWallFunction;
        value           nonuniform List<scalar> 
14
(
0.000174991
0.000188416
7.72963e-05
6.89003e-05
7.40401e-05
8.11891e-05
8.93334e-05
9.85343e-05
0.000109197
0.000121051
0.000132633
0.000143118
0.00015206
0.000159606
)
;
    }
    Table_master
    {
        Cmu             0.09;
        kappa           0.41;
        E               9.8;
        type            epsilonWallFunction;
        value           nonuniform List<scalar> 9(5.58976e-06 2.66046e-06 3.33027e-06 6.34872e-06 1.41326e-05 2.82774e-05 4.9405e-05 8.18062e-05 0.00013934);
    }
    Table_slave
    {
        Cmu             0.09;
        kappa           0.41;
        E               9.8;
        type            epsilonWallFunction;
        value           nonuniform List<scalar> 9(0.00019441 0.000190606 0.000187333 0.000184565 0.000184072 0.000188645 0.000202765 0.000235092 0.000310378);
    }
    inlet
    {
        type            turbulentMixingLengthDissipationRateInlet;
        mixingLength    0.01;
        phi             phi;
        k               k;
        value           uniform 0.211754;
    }
    outlet
    {
        type            zeroGradient;
    }
}


// ************************************************************************* //
