/*--------------------------------*- C++ -*----------------------------------*\
  =========                 |
  \\      /  F ield         | OpenFOAM: The Open Source CFD Toolbox
   \\    /   O peration     | Website:  https://openfoam.org
    \\  /    A nd           | Version:  6
     \\/     M anipulation  |
\*---------------------------------------------------------------------------*/
FoamFile
{
    version     2.0;
    format      ascii;
    class       volScalarField;
    location    "100";
    object      k;
}
// * * * * * * * * * * * * * * * * * * * * * * * * * * * * * * * * * * * * * //

dimensions      [0 2 -2 0 0 0 0];

internalField   nonuniform List<scalar> 
458
(
0.00294348
0.0035924
0.00388273
0.00431692
0.00474731
0.00519343
0.00569219
0.00615029
0.00650231
0.00666782
0.00658254
0.00619343
0.00506839
0.0037926
0.00269196
0.00082954
0.00116437
0.0016099
0.00190725
0.00192299
0.0016978
0.00145691
0.00125885
0.00110126
0.000974869
0.000872589
0.000788722
0.000718249
0.000657997
0.00060352
0.000549665
0.000490667
0.00040757
0.00485152
0.00876096
0.00576396
0.00624272
0.00689179
0.00767698
0.008574
0.00958213
0.0105134
0.0111307
0.0112769
0.0109027
0.00984118
0.00851971
0.00629935
0.00462275
0.00339436
0.00224766
0.000754916
0.00182516
0.00266105
0.00316897
0.00331825
0.00284871
0.00231271
0.00188341
0.00156079
0.00131639
0.00112821
0.000980485
0.000862548
0.000758751
0.000675874
0.000622986
0.000643752
0.00046162
0.0067917
0.0148877
0.00661188
0.00657458
0.00707289
0.00781045
0.00876962
0.00986404
0.0108702
0.0116188
0.0120038
0.0118701
0.0111841
0.0101247
0.00870007
0.00711517
0.00581435
0.0034642
0.00148286
0.00245782
0.00325252
0.00377493
0.00389818
0.0030256
0.00228728
0.00175223
0.00137229
0.00109986
0.000900228
0.000749702
0.000633354
0.000553754
0.000515231
0.000521135
0.000676837
0.00048675
0.00896084
0.0233924
0.00775341
0.00645455
0.00671917
0.00744043
0.00859514
0.00975214
0.01074
0.0115533
0.0120994
0.0121003
0.011546
0.0105805
0.00939978
0.00819356
0.0070538
0.00529608
0.00449917
0.00403909
0.00425966
0.00468569
0.00497427
0.00489963
0.00389402
0.00319839
0.0027096
0.00233827
0.00204539
0.00179602
0.00157011
0.00135467
0.0011371
0.000828558
0.00063578
0.000776212
0.000527204
0.0115341
0.035066
0.0108609
0.00667994
0.0065793
0.00753359
0.0092071
0.0103129
0.0112022
0.0120248
0.0125819
0.0125604
0.0118551
0.0106848
0.00941278
0.00830018
0.00739027
0.00667121
0.00663648
0.00661718
0.00669157
0.00673423
0.00656672
0.00610744
0.00540208
0.00477482
0.00429408
0.00388657
0.00347601
0.0030483
0.00259935
0.00213113
0.00165453
0.00117912
0.000822262
0.000784611
0.000620465
0.000624209
0.000764639
0.000928307
0.0147331
0.0479525
0.0188614
0.00902618
0.00801971
0.00972833
0.0111663
0.0117847
0.012391
0.0131667
0.0137084
0.0135407
0.0125166
0.0109532
0.00937517
0.00817985
0.00755427
0.00751195
0.00793844
0.00834953
0.00847874
0.00824501
0.00766917
0.00684583
0.00597876
0.00530024
0.00478298
0.00431193
0.00383834
0.00334577
0.00283199
0.00230618
0.00179038
0.00131886
0.000964283
0.000814648
0.000687409
0.00065348
0.00118735
0.000988684
0.0180714
0.0561646
0.0317404
0.0182897
0.0151363
0.015105
0.0144605
0.0140479
0.0143264
0.0150552
0.0155185
0.0150692
0.013563
0.0114866
0.00958093
0.00838595
0.00807491
0.00847712
0.00914638
0.00953145
0.00938614
0.00878998
0.00788878
0.00685711
0.00591227
0.00520787
0.00467198
0.00420042
0.0037346
0.00325881
0.0027741
0.00229133
0.00183071
0.00142451
0.00112871
0.000978391
0.000904036
0.000955479
0.00127461
0.0011351
0.0188626
0.0543785
0.0387792
0.0304142
0.0251709
0.020562
0.0175779
0.0164937
0.0168725
0.017765
0.0180446
0.0170111
0.0146889
0.011928
0.00977449
0.00873909
0.00868962
0.00914734
0.00960866
0.00963872
0.00912558
0.00823626
0.00718045
0.00614993
0.0052983
0.0046652
0.00418323
0.00376621
0.00337486
0.00300444
0.00266094
0.00235155
0.00208065
0.00185594
0.00170094
0.00180827
0.00222092
0.00307159
0.00677826
0.00279331
0.0180266
0.0256675
0.023337
0.0204956
0.0181174
0.016702
0.0168297
0.0183445
0.020355
0.0216097
0.0210414
0.0185231
0.0146521
0.0112213
0.00943523
0.00875694
0.00870528
0.00886161
0.00887547
0.00853218
0.00784668
0.00694609
0.00599794
0.00513605
0.00443128
0.00388666
0.00344456
0.00305298
0.00269583
0.00238084
0.0021293
0.00197115
0.00193781
0.00205445
0.00233908
0.00280111
0.00336549
0.00387225
0.00413793
0.00273651
0.00509844
0.00850297
0.0133003
0.0186896
0.0234712
0.0266322
0.027387
0.0254294
0.0205306
0.0151573
0.011403
0.00930065
0.00835434
0.00797808
0.00783612
0.0076858
0.00736043
0.00681008
0.00610667
0.00536325
0.00466936
0.00407245
0.00357336
0.00313994
0.00274651
0.00238974
0.00208566
0.0018566
0.0017207
0.00168781
0.00176277
0.00194985
0.00224743
0.00262521
0.00299002
0.00319805
0.00317839
0.00228816
0.00968947
0.0324158
0.0387718
0.037603
0.0334937
0.0287638
0.0234165
0.0180954
0.0134957
0.0103286
0.00844358
0.00744824
0.00697429
0.00674377
0.00659289
0.00641548
0.00615151
0.00579053
0.00536467
0.00491811
0.00448203
0.0040687
0.00367705
0.00330294
0.00295034
0.00263195
0.00236328
0.0021569
0.00202109
0.00196213
0.00198717
0.00210339
0.00230756
0.00256481
0.00282181
0.00310469
0.00381061
0.00245583
0.0107222
0.0116284
0.0124604
0.0158159
0.0139367
0.0111976
0.00919967
0.00787696
0.00666775
0.00553528
0.00459008
0.00391562
0.00349298
0.0032384
0.0030735
0.00294296
0.00281034
0.00265583
0.00247665
0.00228557
0.00210114
0.00193656
0.00179608
0.00167803
0.00157926
0.00149793
0.00143403
0.00138854
0.00136237
0.001356
0.00136989
0.0014052
0.00146447
0.00155185
0.00167117
0.00181781
0.00198572
0.00197111
0.00178914
0.00166832
)
;

boundaryField
{
    floor
    {
        type            kqRWallFunction;
        value           nonuniform List<scalar> 
36
(
0.00269196
0.00082954
0.00116437
0.0016099
0.00190725
0.00192299
0.0016978
0.00145691
0.00125885
0.00110126
0.000974869
0.000872589
0.000788722
0.000718249
0.000657997
0.00060352
0.000549665
0.000490667
0.00040757
0.00040757
0.00046162
0.00048675
0.000527204
0.000624209
0.000764639
0.000928307
0.00269196
0.00462275
0.00339436
0.00224766
0.00082954
0.00224766
0.000754916
0.0034642
0.00148286
0.00449917
)
;
    }
    ceiling
    {
        type            kqRWallFunction;
        value           nonuniform List<scalar> 
43
(
0.0107222
0.0116284
0.0124604
0.0158159
0.0139367
0.0111976
0.00919967
0.00787696
0.00666775
0.00553528
0.00459008
0.00391562
0.00349298
0.0032384
0.0030735
0.00294296
0.00281034
0.00265583
0.00247665
0.00228557
0.00210114
0.00193656
0.00179608
0.00167803
0.00157926
0.00149793
0.00143403
0.00138854
0.00136237
0.001356
0.00136989
0.0014052
0.00146447
0.00155185
0.00167117
0.00181781
0.00198572
0.00197111
0.00178914
0.00166832
0.0180266
0.0256675
0.00968947
)
;
    }
    sWall
    {
        type            kqRWallFunction;
        value           uniform 0.0107222;
    }
    nWall
    {
        type            kqRWallFunction;
        value           nonuniform List<scalar> 6(0.000928307 0.000988684 0.0011351 0.00228816 0.00245583 0.00166832);
    }
    sideWalls
    {
        type            empty;
    }
    glass1
    {
        type            kqRWallFunction;
        value           nonuniform List<scalar> 9(0.00294348 0.00485152 0.0067917 0.00896084 0.0115341 0.0147331 0.0180714 0.0188626 0.0180266);
    }
    glass2
    {
        type            kqRWallFunction;
        value           nonuniform List<scalar> 2(0.00279331 0.00273651);
    }
    sun
    {
        type            kqRWallFunction;
        value           nonuniform List<scalar> 
14
(
0.00294348
0.0035924
0.00388273
0.00431692
0.00474731
0.00519343
0.00569219
0.00615029
0.00650231
0.00666782
0.00658254
0.00619343
0.00506839
0.0037926
)
;
    }
    Table_master
    {
        type            kqRWallFunction;
        value           nonuniform List<scalar> 9(0.0030256 0.00228728 0.00175223 0.00137229 0.00109986 0.000900228 0.000749702 0.000633354 0.000553754);
    }
    Table_slave
    {
        type            kqRWallFunction;
        value           nonuniform List<scalar> 9(0.00389402 0.00319839 0.0027096 0.00233827 0.00204539 0.00179602 0.00157011 0.00135467 0.0011371);
    }
    inlet
    {
        type            turbulentIntensityKineticEnergyInlet;
        intensity       0.05;
        value           uniform 0.000937501;
    }
    outlet
    {
        type            zeroGradient;
    }
}


// ************************************************************************* //
