// -*- C++ -*-
// File generated by PyFoam - sorry for the ugliness

FoamFile
{
 version 2.0;
 format ascii;
 class volScalarField;
 location "100";
 object T;
}

dimensions [ 0 0 0 1 0 0 0 ];

internalField nonuniform List<scalar> 458
(
  303.124
  302.867
  302.849
  302.84
  302.832
  302.824
  302.816
  302.805
  302.791
  302.779
  302.773
  302.779
  302.808
  302.835
  302.868
  303.351
  303.291
  303.252
  303.249
  303.264
  303.279
  303.295
  303.311
  303.327
  303.344
  303.361
  303.379
  303.399
  303.42
  303.443
  303.472
  303.513
  303.59
  303.292
  302.907
  302.88
  302.877
  302.873
  302.867
  302.857
  302.835
  302.8
  302.767
  302.749
  302.756
  302.785
  302.813
  302.84
  302.853
  302.871
  302.902
  303.378
  303.232
  303.2
  303.209
  303.232
  303.248
  303.264
  303.28
  303.296
  303.312
  303.33
  303.349
  303.371
  303.396
  303.426
  303.462
  303.512
  303.597
  303.473
  302.959
  302.922
  302.93
  302.94
  302.944
  302.936
  302.899
  302.831
  302.764
  302.728
  302.738
  302.773
  302.808
  302.833
  302.85
  302.867
  302.892
  303.259
  303.164
  303.153
  303.186
  303.231
  303.242
  303.257
  303.272
  303.289
  303.308
  303.329
  303.354
  303.386
  303.424
  303.461
  303.497
  303.54
  303.617
  303.663
  303.024
  302.967
  302.989
  303.022
  303.048
  303.049
  302.987
  302.869
  302.76
  302.707
  302.72
  302.767
  302.817
  302.851
  302.87
  302.883
  302.896
  302.912
  302.955
  303.022
  303.107
  303.196
  303.275
  303.338
  303.382
  303.417
  303.447
  303.476
  303.502
  303.526
  303.548
  303.568
  303.561
  303.56
  303.578
  303.637
  303.852
  303.106
  303.016
  303.04
  303.096
  303.154
  303.164
  303.067
  302.889
  302.747
  302.684
  302.704
  302.771
  302.845
  302.897
  302.923
  302.937
  302.95
  302.982
  303.04
  303.122
  303.217
  303.314
  303.4
  303.474
  303.528
  303.569
  303.605
  303.632
  303.652
  303.666
  303.672
  303.669
  303.65
  303.627
  303.621
  303.658
  303.869
  304.11
  304.085
  304.028
  303.211
  303.088
  303.095
  303.158
  303.244
  303.229
  303.083
  302.878
  302.712
  302.65
  302.69
  302.793
  302.902
  302.983
  303.028
  303.051
  303.076
  303.125
  303.2
  303.292
  303.39
  303.483
  303.565
  303.631
  303.681
  303.719
  303.747
  303.767
  303.779
  303.784
  303.779
  303.763
  303.733
  303.697
  303.673
  303.686
  303.808
  303.914
  303.998
  304.191
  303.377
  303.248
  303.238
  303.282
  303.341
  303.253
  303.036
  302.789
  302.622
  302.594
  302.689
  302.849
  303.008
  303.124
  303.192
  303.231
  303.268
  303.33
  303.412
  303.502
  303.593
  303.675
  303.744
  303.796
  303.834
  303.862
  303.879
  303.89
  303.893
  303.889
  303.876
  303.852
  303.816
  303.773
  303.738
  303.733
  303.796
  303.86
  303.924
  304.416
  303.813
  303.664
  303.592
  303.585
  303.469
  303.192
  302.849
  302.574
  302.462
  302.535
  302.732
  302.976
  303.189
  303.33
  303.413
  303.453
  303.497
  303.564
  303.645
  303.725
  303.8
  303.863
  303.912
  303.947
  303.971
  303.985
  303.992
  303.994
  303.99
  303.979
  303.962
  303.938
  303.904
  303.86
  303.825
  303.816
  303.857
  303.91
  304.06
  304.741
  304.452
  304.231
  304.034
  303.803
  303.275
  302.701
  302.291
  302.146
  302.257
  302.557
  302.909
  303.239
  303.465
  303.578
  303.639
  303.682
  303.732
  303.795
  303.863
  303.925
  303.978
  304.02
  304.051
  304.071
  304.082
  304.087
  304.086
  304.082
  304.074
  304.063
  304.049
  304.036
  304.028
  304.031
  304.05
  304.091
  304.138
  304.168
  304.231
  297.012
  297.977
  298.458
  299.122
  299.935
  300.791
  301.599
  302.318
  302.979
  303.39
  303.612
  303.735
  303.802
  303.849
  303.893
  303.941
  303.993
  304.043
  304.086
  304.119
  304.142
  304.157
  304.165
  304.167
  304.166
  304.162
  304.155
  304.147
  304.139
  304.13
  304.123
  304.12
  304.125
  304.142
  304.172
  304.213
  304.262
  304.344
  297.566
  298.728
  300.018
  301.083
  301.794
  302.395
  302.907
  303.311
  303.601
  303.774
  303.877
  303.943
  303.989
  304.028
  304.066
  304.103
  304.139
  304.17
  304.193
  304.21
  304.22
  304.225
  304.226
  304.225
  304.222
  304.218
  304.212
  304.206
  304.199
  304.193
  304.187
  304.183
  304.184
  304.191
  304.208
  304.238
  304.279
  304.327
  300.047
  300.011
  300.009
  301.387
  302.351
  302.997
  303.368
  303.6
  303.771
  303.898
  303.989
  304.051
  304.094
  304.127
  304.153
  304.176
  304.196
  304.213
  304.227
  304.237
  304.244
  304.248
  304.25
  304.251
  304.251
  304.25
  304.248
  304.246
  304.244
  304.241
  304.238
  304.235
  304.231
  304.228
  304.226
  304.227
  304.239
  304.257
  304.276
  304.331
)
;

boundaryField
{
  floor
  {
    type wallHeatTransfer;
    Tinf uniform 305.2;
    alphaWall uniform 0.24;
    value nonuniform List<scalar> 36
(
  303.1
  303.635
  303.551
  303.487
  303.471
  303.483
  303.507
  303.534
  303.561
  303.587
  303.613
  303.639
  303.664
  303.689
  303.716
  303.744
  303.778
  303.823
  303.904
  303.904
  303.898
  303.908
  303.918
  304.094
  304.282
  304.25
  303.1
  303.043
  303.083
  303.147
  303.635
  303.147
  303.667
  303.1
  303.501
  303.099
)
;
  }
  ceiling
  {
    type wallHeatTransfer;
    Tinf uniform 303.2;
    alphaWall uniform 0.24;
    value nonuniform List<scalar> 43
(
  300.227
  300.187
  300.181
  301.476
  302.395
  303.008
  303.358
  303.574
  303.731
  303.845
  303.925
  303.978
  304.014
  304.041
  304.063
  304.082
  304.098
  304.111
  304.121
  304.127
  304.13
  304.13
  304.128
  304.126
  304.122
  304.119
  304.116
  304.113
  304.11
  304.107
  304.105
  304.103
  304.102
  304.102
  304.104
  304.108
  304.123
  304.139
  304.151
  304.195
  304.669
  304.401
  297.899
)
;
  }
  sWall
  {
    type wallHeatTransfer;
    Tinf uniform 315.2;
    alphaWall uniform 0.36;
    value uniform 301.313;
  }
  nWall
  {
    type wallHeatTransfer;
    Tinf uniform 307.2;
    alphaWall uniform 0.36;
    value nonuniform List<scalar> 6
(
  304.728
  304.646
  304.557
  304.777
  304.752
  304.817
)
;
  }
  sideWalls
  {
    type empty;
  }
  glass1
  {
    type wallHeatTransfer;
    Tinf uniform 315.2;
    alphaWall uniform 4.3;
    value nonuniform List<scalar> 9
(
  311.106
  310.573
  310.232
  309.971
  309.746
  309.531
  309.368
  309.438
  309.665
)
;
  }
  glass2
  {
    type wallHeatTransfer;
    Tinf uniform 307.2;
    alphaWall uniform 4.3;
    value nonuniform List<scalar> 2
(
  306.142
  306.205
)
;
  }
  sun
  {
    type wallHeatTransfer;
    Tinf uniform 305.2;
    alphaWall uniform 0.24;
    value nonuniform List<scalar> 14
(
  303.324
  303.075
  303.052
  303.036
  303.021
  303.008
  302.993
  302.978
  302.961
  302.947
  302.943
  302.953
  302.995
  303.041
)
;
  }
  Table_master
  {
    type zeroGradient;
  }
  Table_slave
  {
    type zeroGradient;
  }
  inlet
  {
    type fixedValue;
    value uniform 295.15;
  }
  outlet
  {
    type zeroGradient;
  }
} 	// ************************************************************************* //

