// -*- C++ -*-
// File generated by PyFoam - sorry for the ugliness

FoamFile
{
 version 2.0;
 format ascii;
 class volScalarField;
 location "100";
 object T;
}

dimensions [ 0 0 0 1 0 0 0 ];

internalField nonuniform List<scalar> 458
(
  303.03
  302.688
  302.683
  302.698
  302.716
  302.733
  302.749
  302.763
  302.777
  302.789
  302.799
  302.806
  302.81
  302.813
  302.815
  302.25
  302.228
  302.217
  302.187
  302.159
  302.141
  302.136
  302.143
  302.146
  302.145
  302.147
  302.158
  302.182
  302.229
  302.301
  302.339
  302.327
  302.319
  303.286
  302.801
  302.761
  302.778
  302.8
  302.82
  302.839
  302.856
  302.871
  302.883
  302.89
  302.892
  302.887
  302.873
  302.848
  302.82
  302.778
  302.729
  302.274
  302.276
  302.264
  302.211
  302.133
  302.077
  302.065
  302.067
  302.074
  302.091
  302.129
  302.186
  302.267
  302.373
  302.473
  302.465
  302.39
  302.331
  303.518
  302.933
  302.855
  302.863
  302.889
  302.914
  302.938
  302.96
  302.978
  302.993
  303.001
  303.001
  302.991
  302.967
  302.927
  302.876
  302.82
  302.773
  302.413
  302.39
  302.384
  302.386
  302.371
  302.072
  302.043
  302.055
  302.093
  302.17
  302.275
  302.384
  302.485
  302.589
  302.685
  302.609
  302.547
  302.504
  303.731
  303.075
  302.963
  302.955
  302.983
  303.015
  303.047
  303.076
  303.101
  303.121
  303.134
  303.137
  303.127
  303.101
  303.058
  302.996
  302.915
  302.819
  302.736
  302.676
  302.725
  302.789
  302.85
  302.888
  302.916
  302.926
  302.935
  302.946
  302.96
  302.976
  302.997
  303.022
  303.046
  303.042
  303.051
  303.054
  303.044
  303.929
  303.234
  303.102
  303.071
  303.091
  303.127
  303.166
  303.203
  303.237
  303.264
  303.284
  303.293
  303.29
  303.273
  303.241
  303.194
  303.137
  303.076
  303.022
  302.987
  302.989
  303.017
  303.042
  303.057
  303.068
  303.077
  303.088
  303.105
  303.127
  303.155
  303.19
  303.229
  303.271
  303.307
  303.351
  303.396
  303.444
  303.473
  303.44
  303.415
  304.108
  303.421
  303.312
  303.263
  303.25
  303.272
  303.311
  303.352
  303.392
  303.427
  303.452
  303.466
  303.469
  303.459
  303.435
  303.397
  303.35
  303.297
  303.25
  303.217
  303.202
  303.199
  303.2
  303.2
  303.2
  303.202
  303.208
  303.221
  303.243
  303.275
  303.318
  303.367
  303.419
  303.469
  303.515
  303.553
  303.58
  303.584
  303.498
  303.427
  304.275
  303.671
  303.644
  303.609
  303.544
  303.518
  303.531
  303.559
  303.593
  303.624
  303.648
  303.663
  303.669
  303.664
  303.647
  303.617
  303.576
  303.528
  303.481
  303.441
  303.412
  303.392
  303.376
  303.362
  303.35
  303.339
  303.331
  303.33
  303.339
  303.361
  303.399
  303.449
  303.501
  303.55
  303.592
  303.624
  303.643
  303.641
  303.596
  303.429
  304.512
  304.093
  304.194
  304.175
  304.057
  303.961
  303.911
  303.89
  303.881
  303.886
  303.896
  303.902
  303.903
  303.899
  303.885
  303.861
  303.826
  303.783
  303.737
  303.691
  303.651
  303.617
  303.587
  303.559
  303.532
  303.506
  303.481
  303.459
  303.444
  303.44
  303.454
  303.484
  303.527
  303.575
  303.621
  303.66
  303.697
  303.731
  303.759
  303.785
  304.833
  304.695
  305.156
  305.064
  304.788
  304.569
  304.431
  304.348
  304.298
  304.262
  304.233
  304.215
  304.201
  304.187
  304.169
  304.145
  304.112
  304.072
  304.026
  303.977
  303.929
  303.883
  303.84
  303.798
  303.758
  303.717
  303.676
  303.635
  303.597
  303.564
  303.542
  303.534
  303.539
  303.554
  303.572
  303.596
  303.63
  303.675
  303.739
  303.869
  308.996
  306.023
  305.206
  304.924
  304.793
  304.721
  304.678
  304.652
  304.631
  304.608
  304.585
  304.559
  304.529
  304.494
  304.454
  304.408
  304.357
  304.302
  304.245
  304.189
  304.134
  304.08
  304.027
  303.974
  303.92
  303.865
  303.809
  303.755
  303.705
  303.664
  303.635
  303.619
  303.615
  303.623
  303.643
  303.672
  303.711
  303.771
  308.189
  306.515
  305.895
  305.557
  305.376
  305.274
  305.209
  305.162
  305.122
  305.085
  305.045
  305.001
  304.953
  304.901
  304.845
  304.785
  304.722
  304.656
  304.589
  304.522
  304.456
  304.392
  304.328
  304.265
  304.201
  304.137
  304.071
  304.005
  303.939
  303.875
  303.82
  303.777
  303.75
  303.74
  303.741
  303.75
  303.765
  303.809
  307.846
  307.886
  308.048
  307.401
  306.923
  306.589
  306.361
  306.193
  306.06
  305.948
  305.85
  305.759
  305.672
  305.588
  305.506
  305.425
  305.344
  305.263
  305.183
  305.103
  305.025
  304.947
  304.871
  304.796
  304.722
  304.649
  304.577
  304.506
  304.435
  304.363
  304.29
  304.216
  304.144
  304.079
  304.026
  303.979
  303.938
  303.9
  303.862
  303.854
)
;

boundaryField
{
  floor
  {
    type wallHeatTransfer;
    Tinf uniform 305.2;
    alphaWall uniform 0.24;
    value nonuniform List<scalar> 36
(
  303.136
  302.906
  302.854
  302.839
  302.902
  302.996
  303.052
  303.092
  303.137
  303.168
  303.172
  303.135
  303.072
  302.996
  302.91
  302.864
  302.854
  302.853
  302.891
  302.891
  302.838
  302.909
  303.281
  303.623
  303.608
  303.601
  303.136
  303.113
  303.094
  303.105
  302.906
  303.105
  302.854
  303.064
  302.783
  302.998
)
;
  }
  ceiling
  {
    type wallHeatTransfer;
    Tinf uniform 303.2;
    alphaWall uniform 0.24;
    value nonuniform List<scalar> 43
(
  307.517
  307.659
  307.905
  307.266
  306.78
  306.437
  306.2
  306.022
  305.88
  305.761
  305.656
  305.561
  305.472
  305.387
  305.306
  305.227
  305.151
  305.077
  305.003
  304.931
  304.86
  304.789
  304.72
  304.651
  304.583
  304.516
  304.45
  304.384
  304.319
  304.254
  304.188
  304.12
  304.055
  303.996
  303.947
  303.903
  303.864
  303.828
  303.794
  303.783
  304.764
  304.639
  308.078
)
;
  }
  sWall
  {
    type wallHeatTransfer;
    Tinf uniform 315.2;
    alphaWall uniform 0.36;
    value uniform 308.603;
  }
  nWall
  {
    type wallHeatTransfer;
    Tinf uniform 307.2;
    alphaWall uniform 0.36;
    value nonuniform List<scalar> 6
(
  303.98
  303.988
  303.997
  304.165
  304.232
  304.372
)
;
  }
  sideWalls
  {
    type empty;
  }
  glass1
  {
    type wallHeatTransfer;
    Tinf uniform 315.2;
    alphaWall uniform 4.3;
    value nonuniform List<scalar> 9
(
  312.008
  310.824
  310.102
  309.637
  309.332
  309.119
  308.988
  309.125
  309.424
)
;
  }
  glass2
  {
    type wallHeatTransfer;
    Tinf uniform 307.2;
    alphaWall uniform 4.3;
    value nonuniform List<scalar> 2
(
  305.92
  305.879
)
;
  }
  sun
  {
    type wallHeatTransfer;
    Tinf uniform 305.2;
    alphaWall uniform 0.24;
    value nonuniform List<scalar> 14
(
  303.318
  303.015
  303.088
  303.111
  303.12
  303.126
  303.13
  303.134
  303.137
  303.139
  303.139
  303.139
  303.138
  303.137
)
;
  }
  Table_master
  {
    type zeroGradient;
  }
  Table_slave
  {
    type zeroGradient;
  }
  inlet
  {
    type fixedValue;
    value uniform 295.15;
  }
  outlet
  {
    type zeroGradient;
  }
} 	// ************************************************************************* //

