/*--------------------------------*- C++ -*----------------------------------*\
  =========                 |
  \\      /  F ield         | OpenFOAM: The Open Source CFD Toolbox
   \\    /   O peration     | Website:  https://openfoam.org
    \\  /    A nd           | Version:  6
     \\/     M anipulation  |
\*---------------------------------------------------------------------------*/
FoamFile
{
    version     2.0;
    format      ascii;
    class       volScalarField;
    location    "29499.9999982117115";
    object      epsilon;
}
// * * * * * * * * * * * * * * * * * * * * * * * * * * * * * * * * * * * * * //

dimensions      [0 2 -3 0 0 0 0];

internalField   nonuniform List<scalar> 
778
(
0.000253145
0.00030638
0.000303017
0.000344179
0.000385027
0.000424813
0.000464233
0.000504478
0.000547285
0.000595374
0.000643802
0.000692189
0.000742185
0.000798584
0.000860405
8.94218e-05
0.00026285
0.000269282
0.000250208
0.000220326
0.000184227
0.000152413
0.000126576
0.000105958
8.94946e-05
7.63424e-05
6.56851e-05
5.68825e-05
4.94093e-05
4.27941e-05
3.6538e-05
3.18295e-05
2.36067e-05
0.000797073
0.00144334
0.000286992
0.000259568
0.000261655
0.000267617
0.000276503
0.000289923
0.000310165
0.000340359
0.000379574
0.000430712
0.000499148
0.000600437
0.000785707
0.00112952
0.000978877
0.000858572
0.000512261
0.000369772
0.000294504
0.000243141
0.000204264
0.000187076
0.000154784
0.00012504
0.000100714
8.14995e-05
6.65355e-05
5.48321e-05
4.56422e-05
3.87194e-05
3.45317e-05
3.27802e-05
6.58146e-05
4.81189e-05
0.00163082
0.00407963
0.000407435
0.000242905
0.000229071
0.000230979
0.000238191
0.000250455
0.000268355
0.000292622
0.000324755
0.000366848
0.000421289
0.000495083
0.00060158
0.000724917
0.00082995
0.00158462
0.00102773
0.000512508
0.000367933
0.000294504
0.000262319
0.000552208
0.000363125
0.00025105
0.000181507
0.000136383
0.000105965
8.48073e-05
6.98428e-05
5.94835e-05
4.51556e-05
3.80049e-05
0.000108158
7.08685e-05
0.00285393
0.00877179
0.000710041
0.000240713
0.00020245
0.000199981
0.000203153
0.000209778
0.000220593
0.000237509
0.000263206
0.000299979
0.000349249
0.000412468
0.000488236
0.000560458
0.000612476
0.000824226
0.00156442
0.000728985
0.000459824
0.00035831
0.000301921
0.000291828
0.000814468
0.000613076
0.000482275
0.000388785
0.000319334
0.000264478
0.000218881
0.000179117
0.00014194
8.39077e-05
5.49733e-05
0.000148521
9.46721e-05
0.00454674
0.0158298
0.00134677
0.000258358
0.000175711
0.000166764
0.000165773
0.000167751
0.000173914
0.000187419
0.000211668
0.000248375
0.000297853
0.000359492
0.000428038
0.000489447
0.000528717
0.000582459
0.000627289
0.000483078
0.000393396
0.000330962
0.000282259
0.000248619
0.000247852
0.000226802
0.000202955
0.000181051
0.000162659
0.000146497
0.000131836
0.000118258
0.000105113
8.45545e-05
6.43089e-05
0.000105246
0.000138943
0.000160352
0.000361895
0.000323784
0.00676476
0.0248815
0.00255435
0.00031814
0.000155528
0.000137046
0.000132108
0.000130679
0.00013445
0.000148538
0.000176691
0.000218088
0.000270889
0.000334332
0.000402039
0.000462972
0.000503245
0.0005218
0.000504778
0.000438209
0.00037377
0.000315608
0.000264724
0.000223393
0.00019331
0.000169647
0.000150819
0.000135614
0.000123271
0.000112721
0.000103272
9.452e-05
8.60811e-05
7.59185e-05
6.54282e-05
7.76753e-05
9.9883e-05
0.00020798
0.00105487
0.000556634
0.00967377
0.0336397
0.00458528
0.000465183
0.000150859
0.000116336
0.00010708
0.000103276
0.000107072
0.000127894
0.000166094
0.000215884
0.000273409
0.000340351
0.00040976
0.00047093
0.000510579
0.000520714
0.000494451
0.000437693
0.000371876
0.000307504
0.000250569
0.000204457
0.000169762
0.00014456
0.000126316
0.000112717
0.000102256
9.36891e-05
8.62069e-05
7.93417e-05
7.27979e-05
6.6126e-05
6.03533e-05
6.38911e-05
7.68973e-05
0.000172176
0.00157843
0.000904744
0.0127609
0.0404074
0.00749196
0.000871875
0.000194404
0.000115418
9.74027e-05
9.1468e-05
9.86768e-05
0.000137688
0.000189236
0.000246249
0.000307196
0.000374227
0.000445414
0.000508774
0.000548013
0.000551386
0.000515995
0.000451757
0.00037566
0.000301066
0.000236546
0.000185995
0.000149321
0.00012397
0.000106685
9.45414e-05
8.57074e-05
7.87801e-05
7.28848e-05
6.75364e-05
6.24838e-05
5.76601e-05
5.39627e-05
5.60799e-05
7.0773e-05
0.000339771
0.00524412
0.00198267
0.0138288
0.0414565
0.0139346
0.00316588
0.000630973
0.000208341
0.000132828
0.000116084
0.000142573
0.000192964
0.000249269
0.000306454
0.000367613
0.000437248
0.000511975
0.000576691
0.000611711
0.000603739
0.000552576
0.000471304
0.000378771
0.00029112
0.000218376
0.00016407
0.000126783
0.000102591
8.72548e-05
7.73106e-05
7.06272e-05
6.563e-05
6.14352e-05
5.76069e-05
5.39677e-05
5.05925e-05
4.84213e-05
5.33098e-05
0.00010263
0.000982964
0.0127316
0.00301548
0.0130048
0.0283655
0.0144159
0.00572893
0.00210644
0.000836044
0.000414559
0.000277398
0.000279454
0.000314855
0.000356226
0.000401918
0.000459093
0.000531816
0.000611162
0.000675094
0.000699512
0.0006712
0.000594315
0.000487208
0.000373126
0.00027105
0.000191347
0.000135844
0.000100703
7.98776e-05
6.79516e-05
6.11645e-05
5.70683e-05
5.41069e-05
5.15392e-05
4.90625e-05
4.66156e-05
4.44377e-05
4.40993e-05
5.87132e-05
0.000259227
0.00328158
0.0101092
0.00310821
0.0106882
0.0193515
0.0120376
0.00630161
0.00317634
0.00167637
0.000988048
0.000680048
0.000560828
0.00051788
0.000510805
0.000531953
0.000584584
0.000664057
0.000748835
0.000806089
0.000807868
0.00074452
0.000628632
0.000486839
0.000348302
0.000234079
0.000152749
0.000101907
7.36313e-05
5.88576e-05
5.14056e-05
4.79417e-05
4.61184e-05
4.47766e-05
4.34421e-05
4.19612e-05
4.04002e-05
3.9247e-05
4.14574e-05
7.92355e-05
0.000717109
0.00333507
0.0073125
0.00294801
0.00806935
0.0137648
0.00968985
0.00593332
0.00357041
0.00222834
0.00149164
0.00109397
0.000870073
0.000744181
0.000686519
0.000691045
0.000751938
0.000846344
0.000933403
0.000968776
0.000925887
0.000805761
0.000635752
0.00045339
0.000293985
0.000177927
0.000107128
6.96002e-05
5.26108e-05
4.44764e-05
4.0627e-05
3.91722e-05
3.85592e-05
3.80966e-05
3.7509e-05
3.67493e-05
3.6023e-05
3.61054e-05
4.10726e-05
9.98783e-05
0.000713017
0.00289146
0.00628135
0.00276244
0.00612084
0.0101636
0.00778792
0.00531149
0.00357003
0.00246934
0.00178838
0.00136867
0.00109342
0.00092664
0.000860159
0.000888108
0.000984496
0.00109861
0.00116926
0.00114866
0.00102544
0.000821927
0.000587773
0.000370335
0.000208911
0.000114862
7.21402e-05
5.23169e-05
4.29834e-05
3.82945e-05
3.59317e-05
3.49804e-05
3.46231e-05
3.44267e-05
3.42871e-05
3.43557e-05
3.50885e-05
3.76462e-05
4.66749e-05
9.80174e-05
0.000516978
0.00224654
0.00544087
0.00312066
0.00618386
0.00780526
0.00680035
0.00473744
0.00336446
0.00246179
0.00186558
0.00146223
0.00119476
0.00106533
0.0010718
0.00118209
0.00133039
0.00143629
0.00143418
0.00129562
0.00104832
0.000742873
0.000458581
0.000239322
0.000130994
8.13042e-05
5.95361e-05
4.91008e-05
4.33914e-05
3.98375e-05
3.74769e-05
3.60098e-05
3.53022e-05
3.50826e-05
3.55409e-05
3.7424e-05
4.22251e-05
5.27876e-05
7.58433e-05
0.000138308
0.000452262
0.00195722
0.0041235
0.00345288
0.00454683
0.00511241
0.00418413
0.00336106
0.002639
0.00206938
0.00164831
0.0013614
0.00124527
0.00130205
0.00148028
0.0016876
0.0018214
0.00180824
0.00162595
0.00129406
0.000906777
0.000520825
0.000278676
0.000153692
9.99755e-05
7.72685e-05
6.65108e-05
6.02175e-05
5.57452e-05
5.20721e-05
4.87987e-05
4.59528e-05
4.43632e-05
4.4221e-05
4.63875e-05
5.34396e-05
7.03585e-05
0.0001052
0.000170463
0.000296237
0.00061533
0.00201165
0.00364729
0.00355085
0.00140056
0.00143043
0.00143183
0.00135181
0.00130892
0.00142243
0.00170894
0.00204537
0.0023066
0.00239967
0.00227748
0.0019595
0.00151333
0.000973787
0.000564179
0.000309032
0.000183525
0.000130968
0.000110075
0.00010054
9.50612e-05
9.11859e-05
8.79335e-05
8.46684e-05
8.09147e-05
7.6656e-05
7.31055e-05
7.31236e-05
7.84323e-05
9.46477e-05
0.000132731
0.000210291
0.000352942
0.000606146
0.00108727
0.00216441
0.00425662
0.00316337
0.00118765
0.00171246
0.00194789
0.00230314
0.00275204
0.00315745
0.00333903
0.00330409
0.00307563
0.00267675
0.00210499
0.00148387
0.000953088
0.000557597
0.000329954
0.000224144
0.000183061
0.000167856
0.000161507
0.000158322
0.000156755
0.000156325
0.000156599
0.000156839
0.000155985
0.000153039
0.000148112
0.000146386
0.000153204
0.000175217
0.000226716
0.00033268
0.00053364
0.000898792
0.00155464
0.00264219
0.00409021
0.00289818
0.0074233
0.00811244
0.00481245
0.00339559
0.00372572
0.00413698
0.00415015
0.00394044
0.00358515
0.0031297
0.0026163
0.00206766
0.00151643
0.00103076
0.000672892
0.000459273
0.000360067
0.000321465
0.000306403
0.000298496
0.000292662
0.00028808
0.000285338
0.000285277
0.000288409
0.000294461
0.000302044
0.000308748
0.000312378
0.000314578
0.000327846
0.00035766
0.000415801
0.000525821
0.000728025
0.00109123
0.00174577
0.00294971
0.00526057
0.00324687
0.00650471
0.00514178
0.00436397
0.00461646
0.00453178
0.00426242
0.00368169
0.00303637
0.00245245
0.00196094
0.001557
0.00122578
0.000961167
0.000766933
0.000642715
0.000575515
0.000543822
0.000529433
0.000521958
0.000517045
0.00051364
0.00051255
0.000515663
0.000525419
0.000544294
0.000574164
0.000615547
0.000666885
0.000724125
0.000780592
0.000832524
0.000892189
0.000977172
0.00111395
0.00134175
0.00172259
0.00237214
0.00365837
0.00452502
0.00460425
0.00535519
0.00337104
0.00332091
0.0036199
0.00388098
0.00354593
0.00294479
0.00232698
0.00179298
0.00136083
0.00102266
0.000770164
0.000596909
0.000492892
0.000441737
0.000424274
0.000424317
0.000431193
0.000440792
0.000452066
0.000465833
0.000484218
0.000510284
0.000547535
0.000599148
0.000666966
0.000750705
0.000847988
0.000955534
0.0010712
0.00119648
0.00133252
0.00148496
0.00166736
0.00189555
0.00218164
0.00252726
0.00294707
0.00351178
0.00349402
)
;

boundaryField
{
    floor
    {
        Cmu             0.09;
        kappa           0.41;
        E               9.8;
        type            epsilonWallFunction;
        value           nonuniform List<scalar> 
36
(
0.000860405
8.94218e-05
0.00026285
0.000269282
0.000250208
0.000220326
0.000184227
0.000152413
0.000126576
0.000105958
8.94946e-05
7.63424e-05
6.56851e-05
5.68825e-05
4.94093e-05
4.27941e-05
3.6538e-05
3.18295e-05
2.36067e-05
2.36067e-05
4.81189e-05
7.08685e-05
9.46721e-05
0.000160352
0.000361895
0.000323784
0.000860405
0.00112952
0.000978877
0.000858572
8.94218e-05
0.000858572
0.000512261
0.00158462
0.00102773
0.00156442
)
;
    }
    ceiling
    {
        Cmu             0.09;
        kappa           0.41;
        E               9.8;
        type            epsilonWallFunction;
        value           nonuniform List<scalar> 
43
(
0.00535519
0.00337104
0.00332091
0.0036199
0.00388098
0.00354593
0.00294479
0.00232698
0.00179298
0.00136083
0.00102266
0.000770164
0.000596909
0.000492892
0.000441737
0.000424274
0.000424317
0.000431193
0.000440792
0.000452066
0.000465833
0.000484218
0.000510284
0.000547535
0.000599148
0.000666966
0.000750705
0.000847988
0.000955534
0.0010712
0.00119648
0.00133252
0.00148496
0.00166736
0.00189555
0.00218164
0.00252726
0.00294707
0.00351178
0.00349402
0.00454683
0.00511241
0.00118765
)
;
    }
    sWall
    {
        Cmu             0.09;
        kappa           0.41;
        E               9.8;
        type            epsilonWallFunction;
        value           nonuniform List<scalar> 9(0.0130048 0.0106882 0.00806935 0.00612084 0.00618386 0.00454683 0.0074233 0.00650471 0.00535519);
    }
    nWall
    {
        Cmu             0.09;
        kappa           0.41;
        E               9.8;
        type            epsilonWallFunction;
        value           nonuniform List<scalar> 
14
(
0.000323784
0.000556634
0.000904744
0.00310821
0.00294801
0.00276244
0.00312066
0.00345288
0.00355085
0.00316337
0.00289818
0.00324687
0.00460425
0.00349402
)
;
    }
    sideWalls
    {
        type            empty;
    }
    glass1
    {
        Cmu             0.09;
        kappa           0.41;
        E               9.8;
        type            epsilonWallFunction;
        value           nonuniform List<scalar> 9(0.000253145 0.000797073 0.00163082 0.00285393 0.00454674 0.00676476 0.00967377 0.0127609 0.0138288);
    }
    glass2
    {
        Cmu             0.09;
        kappa           0.41;
        E               9.8;
        type            epsilonWallFunction;
        value           nonuniform List<scalar> 2(0.00198267 0.00301548);
    }
    sun
    {
        Cmu             0.09;
        kappa           0.41;
        E               9.8;
        type            epsilonWallFunction;
        value           nonuniform List<scalar> 
14
(
0.000253145
0.00030638
0.000303017
0.000344179
0.000385027
0.000424813
0.000464233
0.000504478
0.000547285
0.000595374
0.000643802
0.000692189
0.000742185
0.000798584
)
;
    }
    Table_master
    {
        Cmu             0.09;
        kappa           0.41;
        E               9.8;
        type            epsilonWallFunction;
        value           nonuniform List<scalar> 9(0.000552208 0.000363125 0.00025105 0.000181507 0.000136383 0.000105965 8.48073e-05 6.98428e-05 5.94835e-05);
    }
    Table_slave
    {
        Cmu             0.09;
        kappa           0.41;
        E               9.8;
        type            epsilonWallFunction;
        value           nonuniform List<scalar> 9(0.000814468 0.000613076 0.000482275 0.000388785 0.000319334 0.000264478 0.000218881 0.000179117 0.00014194);
    }
    inlet
    {
        type            turbulentMixingLengthDissipationRateInlet;
        mixingLength    0.01;
        phi             phi;
        k               k;
        value           uniform 0.000471671;
    }
    outlet
    {
        type            zeroGradient;
    }
}


// ************************************************************************* //
