/*--------------------------------*- C++ -*----------------------------------*\
  =========                 |
  \\      /  F ield         | OpenFOAM: The Open Source CFD Toolbox
   \\    /   O peration     | Website:  https://openfoam.org
    \\  /    A nd           | Version:  6
     \\/     M anipulation  |
\*---------------------------------------------------------------------------*/
FoamFile
{
    version     2.0;
    format      ascii;
    class       volVectorField;
    location    "29499.9999982117115";
    object      U;
}
// * * * * * * * * * * * * * * * * * * * * * * * * * * * * * * * * * * * * * //

dimensions      [0 1 -1 0 0 0 0];

internalField   nonuniform List<vector> 
778
(
(0.0655979 0.079407 0)
(-0.155177 0.0157641 0)
(-0.164302 0.0146226 0)
(-0.192415 0.0122731 0)
(-0.216848 0.00872394 0)
(-0.236906 0.00474434 0)
(-0.252034 0.000418905 0)
(-0.261807 -0.00436512 0)
(-0.265712 -0.00980657 0)
(-0.262746 -0.0161861 0)
(-0.250952 -0.0242596 0)
(-0.226261 -0.0348799 0)
(-0.186142 -0.050404 0)
(-0.144202 -0.0751781 0)
(-0.15008 -0.108576 0)
(0.0546557 0.0355152 0)
(0.0157683 -0.0268976 0)
(0.0449814 -0.0232856 0)
(0.0694182 -0.0161805 0)
(0.0845129 -0.0103687 0)
(0.0917438 -0.00641827 0)
(0.0945823 -0.0043347 0)
(0.0956089 -0.00331291 0)
(0.096057 -0.00272811 0)
(0.0962276 -0.00231625 0)
(0.0961051 -0.0019522 0)
(0.0955801 -0.00151132 0)
(0.0943219 -0.000756292 0)
(0.0914714 0.000849764 0)
(0.0852589 0.00407645 0)
(0.073702 0.00779159 0)
(0.0600038 0.0116474 0)
(-0.00786021 0.0300145 0)
(0.258397 0.167394 0)
(-0.161236 0.0483918 0)
(-0.141602 0.0459761 0)
(-0.174002 0.0416094 0)
(-0.199361 0.0356629 0)
(-0.220078 0.0291264 0)
(-0.236106 0.0220589 0)
(-0.247361 0.0142333 0)
(-0.253543 0.00530544 0)
(-0.253873 -0.00514111 0)
(-0.24773 -0.0170718 0)
(-0.234037 -0.0308445 0)
(-0.214139 -0.0480782 0)
(-0.19757 -0.0699699 0)
(-0.194065 -0.0826537 0)
(-0.16646 -0.0425531 0)
(-0.105396 -0.0363767 0)
(-0.0983229 -0.0444869 0)
(0.109345 -0.0421032 0)
(0.0644585 -0.0412098 0)
(0.0719254 -0.0323274 0)
(0.085944 -0.0207822 0)
(0.0938906 -0.0105258 0)
(0.096157 -0.00365339 0)
(0.0959254 -0.00018499 0)
(0.0955317 0.00126009 0)
(0.0954894 0.00189969 0)
(0.0955666 0.00226743 0)
(0.0955725 0.00258776 0)
(0.0954724 0.00313136 0)
(0.0951819 0.0044159 0)
(0.0939243 0.0077368 0)
(0.0883242 0.0167804 0)
(0.074555 0.025385 0)
(0.0631683 0.0330369 0)
(-0.0518435 0.0636469 0)
(0.429975 0.253956 0)
(-0.194236 0.0847597 0)
(-0.112779 0.0784249 0)
(-0.148241 0.0669453 0)
(-0.170668 0.0554902 0)
(-0.188758 0.0437216 0)
(-0.202592 0.0313459 0)
(-0.212285 0.0180185 0)
(-0.21764 0.00341875 0)
(-0.218006 -0.0126072 0)
(-0.212759 -0.0303003 0)
(-0.201662 -0.0498931 0)
(-0.186025 -0.0715677 0)
(-0.169487 -0.0932259 0)
(-0.151111 -0.104584 0)
(-0.120266 -0.0931583 0)
(-0.0795609 -0.0949571 0)
(-0.0714393 -0.107621 0)
(0.0921613 -0.0881552 0)
(0.0625889 -0.0657929 0)
(0.0743962 -0.0462029 0)
(0.0880531 -0.0293499 0)
(0.094933 -0.0150244 0)
(0.0920666 -0.0120918 0)
(0.0878266 -0.00797863 0)
(0.0854507 -0.00578613 0)
(0.084761 -0.00455665 0)
(0.0847409 -0.0037951 0)
(0.084996 -0.00322546 0)
(0.0856472 -0.00259944 0)
(0.0874096 -0.00143867 0)
(0.0920998 0.00292568 0)
(0.0902696 0.0251253 0)
(0.0734756 0.042415 0)
(0.070161 0.0575977 0)
(-0.0897645 0.10107 0)
(0.578538 0.325843 0)
(-0.240106 0.121812 0)
(-0.0808372 0.109213 0)
(-0.121575 0.0898398 0)
(-0.139005 0.0740555 0)
(-0.153062 0.0586266 0)
(-0.163818 0.0427524 0)
(-0.17141 0.02582 0)
(-0.175622 0.00721978 0)
(-0.175692 -0.0135019 0)
(-0.17101 -0.03644 0)
(-0.161448 -0.0614338 0)
(-0.147583 -0.0873663 0)
(-0.130601 -0.110311 0)
(-0.109638 -0.123217 0)
(-0.0821539 -0.124556 0)
(-0.0525398 -0.126384 0)
(-0.0334138 -0.123207 0)
(0.0163326 -0.0568197 0)
(0.0608187 -0.0930247 0)
(0.0684921 -0.0792222 0)
(0.0791176 -0.0588975 0)
(0.0916113 -0.0396864 0)
(0.102946 -0.0210385 0)
(0.115704 -0.013296 0)
(0.126921 -0.00887437 0)
(0.132576 -0.00563978 0)
(0.133596 -0.00311813 0)
(0.131091 -0.000885503 0)
(0.12564 0.00128768 0)
(0.117119 0.00366858 0)
(0.104767 0.00672131 0)
(0.0855309 0.0111486 0)
(0.0716599 0.0368278 0)
(0.0604028 0.0605972 0)
(0.0764201 0.0835161 0)
(-0.117175 0.137506 0)
(0.705712 0.383684 0)
(-0.28768 0.157009 0)
(-0.0477023 0.133772 0)
(-0.0962964 0.106905 0)
(-0.107745 0.0875812 0)
(-0.116775 0.0691641 0)
(-0.12356 0.0504475 0)
(-0.128216 0.0306002 0)
(-0.130572 0.00874877 0)
(-0.129765 -0.0157863 0)
(-0.125267 -0.043042 0)
(-0.116645 -0.0726563 0)
(-0.103923 -0.102814 0)
(-0.0874447 -0.129093 0)
(-0.0674908 -0.145795 0)
(-0.0441427 -0.152273 0)
(-0.0202794 -0.152374 0)
(0.000264232 -0.143727 0)
(0.0307961 -0.115014 0)
(0.056978 -0.109377 0)
(0.0705736 -0.0924807 0)
(0.0807175 -0.0713356 0)
(0.0907817 -0.0509043 0)
(0.100344 -0.0328715 0)
(0.109478 -0.0194714 0)
(0.116544 -0.0100725 0)
(0.12001 -0.00336157 0)
(0.120242 0.0019052 0)
(0.117852 0.006461 0)
(0.113212 0.0108188 0)
(0.106355 0.0154886 0)
(0.0972171 0.0211728 0)
(0.0853104 0.0291745 0)
(0.0737905 0.0471806 0)
(0.0633771 0.0712548 0)
(0.095015 0.09948 0)
(0.0174379 0.138699 0)
(0.0969128 0.18273 0)
(0.140342 0.147272 0)
(-0.223017 0.202266 0)
(0.810413 0.431979 0)
(-0.331315 0.190682 0)
(-0.0173249 0.150241 0)
(-0.073375 0.117509 0)
(-0.0785998 0.0954984 0)
(-0.082218 0.0749349 0)
(-0.0844676 0.0543403 0)
(-0.0854993 0.0327291 0)
(-0.0852371 0.00888309 0)
(-0.0825553 -0.0183745 0)
(-0.0773853 -0.0489818 0)
(-0.0687545 -0.0824615 0)
(-0.0567541 -0.11648 0)
(-0.0416894 -0.146305 0)
(-0.0246988 -0.166003 0)
(-0.00630434 -0.174505 0)
(0.0120853 -0.172753 0)
(0.0280071 -0.161014 0)
(0.0461762 -0.139338 0)
(0.0626324 -0.122373 0)
(0.0733098 -0.102547 0)
(0.0809919 -0.0805247 0)
(0.0877551 -0.0592071 0)
(0.0939479 -0.0403456 0)
(0.0993051 -0.0251665 0)
(0.103032 -0.0137971 0)
(0.104675 -0.00508807 0)
(0.104281 0.00212088 0)
(0.102147 0.00860283 0)
(0.0985234 0.0148725 0)
(0.0935719 0.0214538 0)
(0.0875293 0.0289787 0)
(0.0806703 0.0383632 0)
(0.0749546 0.0527589 0)
(0.0698169 0.0727447 0)
(0.0920174 0.0985144 0)
(0.0742259 0.107494 0)
(0.0911089 0.0483889 0)
(0.146346 -0.0352699 0)
(-0.323858 0.106016 0)
(0.879877 0.474693 0)
(-0.368631 0.220967 0)
(0.0037057 0.155554 0)
(-0.0526716 0.121561 0)
(-0.0522182 0.0978387 0)
(-0.0510338 0.0758089 0)
(-0.0490232 0.0540376 0)
(-0.0464993 0.0315407 0)
(-0.0433002 0.00679217 0)
(-0.0373264 -0.0222632 0)
(-0.0302423 -0.0553189 0)
(-0.0204507 -0.0918897 0)
(-0.00864071 -0.128855 0)
(0.00456845 -0.161226 0)
(0.0176201 -0.181874 0)
(0.0304072 -0.190215 0)
(0.042217 -0.18723 0)
(0.0525262 -0.174423 0)
(0.0624978 -0.154074 0)
(0.0710752 -0.132431 0)
(0.0766017 -0.109435 0)
(0.0800649 -0.0859622 0)
(0.0826708 -0.0638137 0)
(0.0849243 -0.0443343 0)
(0.0867848 -0.0282399 0)
(0.087915 -0.0154365 0)
(0.0880832 -0.00515051 0)
(0.0871355 0.00352944 0)
(0.0852491 0.0112799 0)
(0.0825714 0.0186177 0)
(0.0792803 0.0260364 0)
(0.0756624 0.0340324 0)
(0.0721367 0.0431586 0)
(0.0701056 0.054709 0)
(0.0690101 0.0690978 0)
(0.0822304 0.0881112 0)
(0.0857275 0.0916078 0)
(0.0914845 0.0547993 0)
(0.181277 0.0273564 0)
(-0.277682 0.155874 0)
(0.927918 0.517153 0)
(-0.383147 0.234169 0)
(0.0168818 0.132967 0)
(-0.0273336 0.116642 0)
(-0.0265605 0.0949039 0)
(-0.0227473 0.0724085 0)
(-0.0176247 0.0500868 0)
(-0.0123377 0.0272415 0)
(-0.00534519 0.00184787 0)
(0.00464063 -0.0307203 0)
(0.0143801 -0.0652884 0)
(0.0256873 -0.103278 0)
(0.0373227 -0.140796 0)
(0.0479782 -0.172083 0)
(0.0570443 -0.192289 0)
(0.064515 -0.199791 0)
(0.0702219 -0.195383 0)
(0.0741681 -0.181196 0)
(0.076863 -0.160117 0)
(0.0782211 -0.136132 0)
(0.0778609 -0.111139 0)
(0.0763608 -0.0866451 0)
(0.0745545 -0.0641164 0)
(0.0729698 -0.0445436 0)
(0.0717438 -0.0282948 0)
(0.0707356 -0.0150848 0)
(0.0697384 -0.0042202 0)
(0.0684566 0.00506529 0)
(0.0669858 0.0133443 0)
(0.0652973 0.0210934 0)
(0.0634715 0.0287279 0)
(0.0616996 0.0365873 0)
(0.0603018 0.0449435 0)
(0.0601903 0.054246 0)
(0.0613244 0.0644585 0)
(0.0704978 0.0772345 0)
(0.0811478 0.0805022 0)
(0.0824818 0.0616349 0)
(0.238795 0.0569527 0)
(-0.547 0.23489 0)
(1.01128 0.506812 0)
(-0.13718 0.296343 0)
(0.041088 0.161507 0)
(0.0406215 0.122056 0)
(0.0131016 0.0919329 0)
(0.00867866 0.0653135 0)
(0.0141175 0.0413361 0)
(0.0207633 0.0169295 0)
(0.0326037 -0.0110614 0)
(0.0440946 -0.0421635 0)
(0.0559915 -0.0768892 0)
(0.0682766 -0.11458 0)
(0.0793994 -0.151017 0)
(0.0878646 -0.180472 0)
(0.0930384 -0.198508 0)
(0.0950449 -0.203699 0)
(0.0942993 -0.197079 0)
(0.0913516 -0.181061 0)
(0.0868773 -0.158685 0)
(0.0813256 -0.133275 0)
(0.0749894 -0.10727 0)
(0.068472 -0.0825007 0)
(0.0625002 -0.0603163 0)
(0.0575968 -0.0414323 0)
(0.0539513 -0.0259193 0)
(0.0514492 -0.0132744 0)
(0.0498043 -0.0027278 0)
(0.0486088 0.00640195 0)
(0.0478094 0.0146055 0)
(0.0471749 0.022312 0)
(0.0466459 0.0298443 0)
(0.0462618 0.0374035 0)
(0.0461549 0.0450589 0)
(0.0468 0.0528141 0)
(0.0483202 0.0602161 0)
(0.0546292 0.0674693 0)
(0.0661571 0.0652318 0)
(0.0642439 0.0383036 0)
(0.290189 0.0712944 0)
(-0.746059 0.30758 0)
(0.779311 0.395678 0)
(0.000919946 0.319473 0)
(0.0934316 0.218893 0)
(0.110664 0.155131 0)
(0.0772393 0.106763 0)
(0.0598592 0.0674619 0)
(0.0582857 0.0356593 0)
(0.0624738 0.00630529 0)
(0.0739424 -0.0235309 0)
(0.085549 -0.0551066 0)
(0.0977714 -0.0897633 0)
(0.109641 -0.126208 0)
(0.118991 -0.159938 0)
(0.124047 -0.185626 0)
(0.12422 -0.199704 0)
(0.119946 -0.201328 0)
(0.112186 -0.191848 0)
(0.102014 -0.173796 0)
(0.0904695 -0.150197 0)
(0.0783946 -0.124092 0)
(0.0664808 -0.0980275 0)
(0.0554704 -0.0739333 0)
(0.0461004 -0.0530512 0)
(0.0388509 -0.0358134 0)
(0.0338227 -0.021982 0)
(0.0307546 -0.0107634 0)
(0.0291582 -0.00125285 0)
(0.0285464 0.00716279 0)
(0.0286132 0.0149156 0)
(0.0290176 0.0223622 0)
(0.029599 0.0297281 0)
(0.0302422 0.0371286 0)
(0.0308163 0.0445529 0)
(0.0312069 0.051859 0)
(0.0307381 0.0584964 0)
(0.030313 0.0639377 0)
(0.0163011 0.0633386 0)
(0.013139 0.0920566 0)
(0.0579404 0.173495 0)
(-0.63306 0.309294 0)
(0.61724 0.220712 0)
(0.00475922 0.298058 0)
(0.113082 0.241508 0)
(0.148365 0.177499 0)
(0.130945 0.123425 0)
(0.117929 0.0777215 0)
(0.115081 0.0387537 0)
(0.117276 0.00324325 0)
(0.123682 -0.0308681 0)
(0.13195 -0.0651136 0)
(0.141665 -0.100527 0)
(0.150546 -0.135306 0)
(0.155648 -0.165103 0)
(0.155047 -0.185599 0)
(0.148438 -0.194492 0)
(0.13673 -0.191797 0)
(0.121397 -0.179235 0)
(0.103941 -0.159358 0)
(0.0857352 -0.135071 0)
(0.0678876 -0.10917 0)
(0.0513533 -0.0841492 0)
(0.0370322 -0.0618977 0)
(0.025697 -0.0434951 0)
(0.0176552 -0.028984 0)
(0.0126866 -0.0177158 0)
(0.0101081 -0.0085129 0)
(0.00916742 -0.000410271 0)
(0.00939193 0.00707471 0)
(0.010279 0.0142629 0)
(0.0115652 0.0214005 0)
(0.0130726 0.0286401 0)
(0.0145991 0.0361077 0)
(0.015807 0.0438975 0)
(0.0161334 0.0521168 0)
(0.0144139 0.0607897 0)
(0.00997727 0.0709591 0)
(-0.0225746 0.0968871 0)
(-0.0196356 0.144397 0)
(0.0063833 0.186751 0)
(-0.544409 0.203167 0)
(0.570782 0.118299 0)
(-0.0202263 0.258556 0)
(0.113739 0.229847 0)
(0.165092 0.175999 0)
(0.166764 0.126089 0)
(0.164436 0.0809645 0)
(0.165444 0.0398001 0)
(0.168433 0.00142821 0)
(0.172434 -0.0355876 0)
(0.178058 -0.0720514 0)
(0.184261 -0.107612 0)
(0.187955 -0.139536 0)
(0.186124 -0.163989 0)
(0.177397 -0.178183 0)
(0.162227 -0.181326 0)
(0.142157 -0.174296 0)
(0.119123 -0.159097 0)
(0.0948757 -0.138148 0)
(0.0710062 -0.114163 0)
(0.048755 -0.0896545 0)
(0.0293136 -0.0670368 0)
(0.013749 -0.0480891 0)
(0.00272082 -0.0335427 0)
(-0.00410279 -0.0226383 0)
(-0.00754707 -0.0144109 0)
(-0.00899104 -0.00724657 0)
(-0.00913522 -0.000472979 0)
(-0.00826888 0.00615083 0)
(-0.00684873 0.0127777 0)
(-0.00495508 0.0195479 0)
(-0.00271316 0.0265988 0)
(-0.000266483 0.0341994 0)
(0.00202825 0.0426286 0)
(0.00350554 0.0524234 0)
(0.00304104 0.0645688 0)
(0.000469482 0.0829263 0)
(-0.0267837 0.12439 0)
(-0.0204695 0.184533 0)
(0.0215989 0.185185 0)
(-0.514568 0.0716927 0)
(0.628521 0.0534124 0)
(0.00935918 0.197231 0)
(0.113785 0.196937 0)
(0.175086 0.157887 0)
(0.191337 0.117591 0)
(0.198002 0.0771158 0)
(0.203362 0.0370528 0)
(0.208624 -0.00178436 0)
(0.213209 -0.0399368 0)
(0.217596 -0.0767297 0)
(0.219465 -0.110009 0)
(0.215649 -0.136658 0)
(0.20427 -0.154124 0)
(0.185425 -0.161443 0)
(0.160728 -0.159171 0)
(0.132335 -0.148696 0)
(0.102472 -0.132056 0)
(0.0728433 -0.111328 0)
(0.0452159 -0.0890461 0)
(0.0208107 -0.0674256 0)
(0.00125769 -0.0488637 0)
(-0.0123349 -0.0350685 0)
(-0.0201352 -0.0258314 0)
(-0.0243045 -0.0188389 0)
(-0.0261528 -0.0128174 0)
(-0.0266208 -0.00701226 0)
(-0.026165 -0.00115607 0)
(-0.0249169 0.00480781 0)
(-0.0232115 0.0109031 0)
(-0.0209622 0.0172093 0)
(-0.0181994 0.023873 0)
(-0.014939 0.0312108 0)
(-0.011303 0.0397558 0)
(-0.00769815 0.0505003 0)
(-0.00501409 0.0653615 0)
(-0.000797327 0.0887029 0)
(-0.00882325 0.132094 0)
(-0.00866733 0.203153 0)
(0.125687 0.204289 0)
(-0.428966 0.0541406 0)
(0.471992 0.0747233 0)
(-0.132098 0.137571 0)
(0.0941373 0.133308 0)
(0.172593 0.116766 0)
(0.203695 0.0952415 0)
(0.217983 0.0642021 0)
(0.228003 0.028098 0)
(0.237155 -0.0093348 0)
(0.243631 -0.0456846 0)
(0.245216 -0.0785335 0)
(0.239292 -0.105238 0)
(0.224514 -0.123788 0)
(0.201413 -0.133385 0)
(0.171901 -0.134493 0)
(0.138537 -0.128355 0)
(0.103586 -0.116221 0)
(0.0693141 -0.0999187 0)
(0.0369076 -0.0810567 0)
(0.00873373 -0.0621709 0)
(-0.0143838 -0.0453164 0)
(-0.0288059 -0.0342358 0)
(-0.0374492 -0.0268698 0)
(-0.0420722 -0.0215261 0)
(-0.0442946 -0.0168705 0)
(-0.0449865 -0.0122823 0)
(-0.0446807 -0.00743608 0)
(-0.0436845 -0.00225409 0)
(-0.0420794 0.00319993 0)
(-0.0402099 0.00879938 0)
(-0.0378317 0.014555 0)
(-0.0348652 0.0206159 0)
(-0.0311958 0.0273007 0)
(-0.0267254 0.035226 0)
(-0.021596 0.0456947 0)
(-0.0163898 0.0613414 0)
(-0.00855571 0.0856051 0)
(0.000371215 0.123029 0)
(0.00367356 0.183319 0)
(0.166686 0.193457 0)
(-0.33433 0.118398 0)
(0.723894 0.134419 0)
(0.0818601 0.115216 0)
(0.149645 0.0992058 0)
(0.222237 0.0804596 0)
(0.243871 0.0698281 0)
(0.248665 0.0474492 0)
(0.255017 0.0172003 0)
(0.261178 -0.0151491 0)
(0.260265 -0.0451623 0)
(0.24983 -0.0698972 0)
(0.229657 -0.087676 0)
(0.201336 -0.0980794 0)
(0.167248 -0.101464 0)
(0.129909 -0.0988249 0)
(0.0917664 -0.0913982 0)
(0.054221 -0.0798371 0)
(0.0198852 -0.0657499 0)
(-0.0116825 -0.0502923 0)
(-0.0342892 -0.0383544 0)
(-0.0493671 -0.030317 0)
(-0.0583146 -0.0254739 0)
(-0.063428 -0.0220982 0)
(-0.0660995 -0.0191837 0)
(-0.0671706 -0.0161031 0)
(-0.0670728 -0.0125853 0)
(-0.0661031 -0.00849907 0)
(-0.0645183 -0.00382427 0)
(-0.0624324 0.00132989 0)
(-0.0603521 0.00663768 0)
(-0.0581258 0.011945 0)
(-0.0555546 0.0173911 0)
(-0.0525605 0.0232728 0)
(-0.0490406 0.0302978 0)
(-0.0449234 0.0400684 0)
(-0.0401117 0.0549805 0)
(-0.0323409 0.0757635 0)
(-0.0170567 0.100033 0)
(0.000749061 0.13667 0)
(0.181916 0.163987 0)
(-0.328721 0.180602 0)
(0.191942 0.0880193 0)
(0.225724 0.0997973 0)
(0.246437 0.0700762 0)
(0.242492 0.0395944 0)
(0.239696 0.0117824 0)
(0.234658 -0.0132759 0)
(0.219935 -0.0337433 0)
(0.196269 -0.0488241 0)
(0.166034 -0.0585114 0)
(0.131674 -0.0632958 0)
(0.0949691 -0.063528 0)
(0.0577809 -0.0599091 0)
(0.0219984 -0.0532664 0)
(-0.0131002 -0.0437103 0)
(-0.0407325 -0.0345824 0)
(-0.0616117 -0.027395 0)
(-0.0756654 -0.0231553 0)
(-0.0846318 -0.0209099 0)
(-0.0901943 -0.0197212 0)
(-0.0936342 -0.0186566 0)
(-0.095565 -0.017305 0)
(-0.0962724 -0.0154448 0)
(-0.0959068 -0.0129348 0)
(-0.0946158 -0.00966128 0)
(-0.0926085 -0.00555241 0)
(-0.0901208 -0.000657803 0)
(-0.0873885 0.00466718 0)
(-0.085301 0.00999122 0)
(-0.0834362 0.0153748 0)
(-0.0818833 0.0211755 0)
(-0.0805546 0.0281425 0)
(-0.0790334 0.037479 0)
(-0.0771277 0.0501678 0)
(-0.0739349 0.0648249 0)
(-0.0624123 0.0768188 0)
(-0.0298074 0.0901293 0)
(0.122899 0.14426 0)
(-0.453906 0.23957 0)
(0.451272 0.209573 0)
(0.206688 0.178756 0)
(0.153026 0.118795 0)
(0.139808 0.0639022 0)
(0.12832 0.0256244 0)
(0.114223 0.00147862 0)
(0.098756 -0.013284 0)
(0.0777535 -0.0224644 0)
(0.0532132 -0.0280904 0)
(0.0262581 -0.0305203 0)
(-0.00334276 -0.0296425 0)
(-0.0324372 -0.0263325 0)
(-0.0584756 -0.0219294 0)
(-0.0804714 -0.0177117 0)
(-0.0969306 -0.0151223 0)
(-0.108491 -0.0140385 0)
(-0.116357 -0.0142038 0)
(-0.12196 -0.0147992 0)
(-0.126131 -0.0153829 0)
(-0.129214 -0.0157072 0)
(-0.13128 -0.015637 0)
(-0.132303 -0.0150329 0)
(-0.132252 -0.013722 0)
(-0.131138 -0.0114983 0)
(-0.12907 -0.00815901 0)
(-0.126256 -0.00359529 0)
(-0.122794 0.00199224 0)
(-0.119636 0.00786664 0)
(-0.117342 0.0137244 0)
(-0.115639 0.0200622 0)
(-0.114271 0.0277097 0)
(-0.112855 0.0375532 0)
(-0.112177 0.0500621 0)
(-0.11455 0.0646926 0)
(-0.115956 0.0800833 0)
(-0.102029 0.0992981 0)
(-0.111379 0.141427 0)
(-0.558626 0.197306 0)
(0.362296 -0.414359 0)
(-0.346054 -0.51305 0)
(-0.218747 -0.0280353 0)
(-0.0927539 0.110957 0)
(-0.053538 0.0926459 0)
(-0.0313138 0.0545653 0)
(-0.0265957 0.0283338 0)
(-0.0316466 0.0115246 0)
(-0.0403741 0.00055039 0)
(-0.0507215 -0.00672266 0)
(-0.0642174 -0.011133 0)
(-0.0792876 -0.0135337 0)
(-0.0949332 -0.0150394 0)
(-0.110122 -0.0168484 0)
(-0.123804 -0.0193005 0)
(-0.134969 -0.0221171 0)
(-0.143242 -0.0248224 0)
(-0.149374 -0.026859 0)
(-0.154348 -0.0282603 0)
(-0.158761 -0.0291307 0)
(-0.162739 -0.0295336 0)
(-0.166168 -0.0294598 0)
(-0.168843 -0.0288685 0)
(-0.17056 -0.027695 0)
(-0.17117 -0.0258474 0)
(-0.170627 -0.0231991 0)
(-0.169012 -0.0195888 0)
(-0.166519 -0.0148359 0)
(-0.163349 -0.00880353 0)
(-0.159502 -0.00150802 0)
(-0.155869 0.00662285 0)
(-0.151945 0.0149307 0)
(-0.147046 0.023913 0)
(-0.14035 0.0344422 0)
(-0.131428 0.0471157 0)
(-0.120891 0.0624848 0)
(-0.105254 0.082792 0)
(-0.0596374 0.110631 0)
(0.0272893 0.12344 0)
(-0.571914 0.0254369 0)
(0.124444 -0.184943 0)
(-0.387728 -0.297519 0)
(-0.343224 -0.0965527 0)
(-0.264806 0.0517236 0)
(-0.211144 0.0837581 0)
(-0.179069 0.0747643 0)
(-0.162875 0.0612121 0)
(-0.156954 0.0511715 0)
(-0.157052 0.045945 0)
(-0.160286 0.0453364 0)
(-0.16461 0.0484921 0)
(-0.168834 0.0544753 0)
(-0.172253 0.0620651 0)
(-0.174595 0.0693804 0)
(-0.176238 0.0745551 0)
(-0.177864 0.076424 0)
(-0.179949 0.0753541 0)
(-0.182531 0.0729895 0)
(-0.185489 0.0700167 0)
(-0.188684 0.0665751 0)
(-0.191983 0.0626137 0)
(-0.195263 0.0580946 0)
(-0.198412 0.0530696 0)
(-0.201332 0.0477602 0)
(-0.203925 0.0426097 0)
(-0.20606 0.0382328 0)
(-0.207535 0.0352426 0)
(-0.20808 0.0340298 0)
(-0.207382 0.0345567 0)
(-0.204921 0.0360078 0)
(-0.200624 0.0365384 0)
(-0.194732 0.0363377 0)
(-0.186196 0.0365847 0)
(-0.174031 0.0379444 0)
(-0.157218 0.0403266 0)
(-0.13376 0.042566 0)
(-0.0969334 0.0449099 0)
(-0.0323788 0.0556724 0)
(0.152732 0.0878922 0)
(-0.344163 0.0775193 0)
(1.147 -0.0112491 0)
(-0.295197 -0.323209 0)
(-0.352929 -0.234072 0)
(-0.352286 -0.149681 0)
(-0.328525 -0.108249 0)
(-0.296855 -0.099702 0)
(-0.269585 -0.102 0)
(-0.249863 -0.10793 0)
(-0.236808 -0.115969 0)
(-0.228457 -0.126085 0)
(-0.223 -0.138465 0)
(-0.219048 -0.152825 0)
(-0.215679 -0.167891 0)
(-0.212555 -0.181534 0)
(-0.209872 -0.191661 0)
(-0.208129 -0.197372 0)
(-0.207816 -0.199336 0)
(-0.209122 -0.199199 0)
(-0.211932 -0.197747 0)
(-0.21615 -0.195237 0)
(-0.221759 -0.1916 0)
(-0.228775 -0.186623 0)
(-0.23718 -0.180099 0)
(-0.246855 -0.171944 0)
(-0.257487 -0.162279 0)
(-0.268491 -0.151452 0)
(-0.27898 -0.139952 0)
(-0.287827 -0.128239 0)
(-0.293816 -0.116541 0)
(-0.295882 -0.10477 0)
(-0.293263 -0.0927183 0)
(-0.286514 -0.0815955 0)
(-0.27649 -0.0719723 0)
(-0.263495 -0.0630467 0)
(-0.24801 -0.0543558 0)
(-0.228993 -0.0460624 0)
(-0.198014 -0.0364852 0)
(-0.144205 -0.0154135 0)
(-0.126978 0.0307207 0)
(-0.568402 0.0754368 0)
)
;

boundaryField
{
    floor
    {
        type            noSlip;
    }
    ceiling
    {
        type            noSlip;
    }
    sWall
    {
        type            noSlip;
    }
    nWall
    {
        type            noSlip;
    }
    sideWalls
    {
        type            empty;
    }
    glass1
    {
        type            noSlip;
    }
    glass2
    {
        type            noSlip;
    }
    sun
    {
        type            noSlip;
    }
    Table_master
    {
        type            noSlip;
    }
    Table_slave
    {
        type            noSlip;
    }
    inlet
    {
        type            fixedValue;
        value           uniform (0.5 0 0);
    }
    outlet
    {
        type            zeroGradient;
    }
}


// ************************************************************************* //
