/*--------------------------------*- C++ -*----------------------------------*\
  =========                 |
  \\      /  F ield         | OpenFOAM: The Open Source CFD Toolbox
   \\    /   O peration     | Website:  https://openfoam.org
    \\  /    A nd           | Version:  6
     \\/     M anipulation  |
\*---------------------------------------------------------------------------*/
FoamFile
{
    version     2.0;
    format      ascii;
    class       volScalarField;
    location    "1300";
    object      epsilon;
}
// * * * * * * * * * * * * * * * * * * * * * * * * * * * * * * * * * * * * * //

dimensions      [0 2 -3 0 0 0 0];

internalField   nonuniform List<scalar> 
662
(
0.00039506
0.000503953
0.000538033
0.000618893
0.000700835
0.000784909
0.000874902
0.000977086
0.00108696
0.00119534
0.00128383
0.00131433
0.00123387
0.00100178
0.00053069
5.0484e-05
8.12845e-05
0.000121591
0.000141513
0.000135842
0.000109783
8.52733e-05
6.69029e-05
5.34486e-05
4.34369e-05
3.58586e-05
3.00078e-05
2.5425e-05
2.17177e-05
1.85788e-05
1.5764e-05
1.40042e-05
1.07291e-05
0.00095702
0.00149664
0.000460023
0.000447549
0.000462594
0.000484083
0.000516338
0.000569205
0.000646403
0.000743661
0.000842116
0.000904395
0.000888291
0.000790995
0.000675777
0.000999502
0.000562715
0.000298658
4.84747e-05
9.61124e-05
0.00012577
0.000129458
0.000125162
0.000125293
9.67616e-05
7.21193e-05
5.41295e-05
4.12285e-05
3.19389e-05
2.51524e-05
2.01372e-05
1.64097e-05
1.40016e-05
1.29111e-05
3.29126e-05
2.2437e-05
0.00178652
0.00401631
0.000559515
0.000382214
0.000378253
0.000392651
0.000419166
0.000467262
0.00054416
0.000646552
0.000759766
0.000857278
0.000882972
0.000801969
0.000668733
0.000567025
0.000494332
0.000548039
0.000172674
0.000182914
0.000172491
0.0001572
0.000147527
0.000277337
0.000182576
0.00012265
8.50773e-05
6.10662e-05
4.53082e-05
3.46755e-05
2.74113e-05
2.25462e-05
1.73484e-05
1.50778e-05
6.85134e-05
3.59597e-05
0.00303818
0.0087635
0.00101062
0.000367292
0.000324626
0.000330863
0.000351456
0.000402928
0.000490217
0.000594082
0.000711098
0.000836421
0.00088749
0.000812882
0.000687239
0.000577031
0.000513711
0.000533435
0.000849676
0.000532404
0.000351548
0.000258604
0.000205583
0.000180834
0.000412776
0.000311225
0.00024961
0.000207958
0.000176089
0.000150023
0.00012767
0.000106895
8.61754e-05
5.16718e-05
3.24879e-05
0.000123496
5.41439e-05
0.00478743
0.0139862
0.00238546
0.000535038
0.000353779
0.000328298
0.000339201
0.000425416
0.000541191
0.000636687
0.000751374
0.000891246
0.00094006
0.000844206
0.000685379
0.00054013
0.000442813
0.0004111
0.000414342
0.000355124
0.000300977
0.000256864
0.000217335
0.000182023
0.000167101
0.000149806
0.000136275
0.000124371
0.000112521
0.000100448
8.83532e-05
7.6578e-05
6.55089e-05
5.20236e-05
3.99787e-05
8.17621e-05
0.000122525
0.000129102
0.000152482
0.000195001
0.0073981
0.0215262
0.00610859
0.00176516
0.000899081
0.000623483
0.000550896
0.000650809
0.000737365
0.000785733
0.000884204
0.00103371
0.00106934
0.000912848
0.000691501
0.000497519
0.000374225
0.000329561
0.000324529
0.000317484
0.000297466
0.000264331
0.000224029
0.00018406
0.000155108
0.000139133
0.000130484
0.000123569
0.000115693
0.000105524
9.27868e-05
7.93436e-05
6.67714e-05
5.54024e-05
4.8033e-05
6.12085e-05
9.70417e-05
0.000115533
0.00021941
0.000218249
0.0122763
0.0153417
0.0111898
0.00592377
0.00312169
0.00183166
0.00131111
0.00117376
0.00108892
0.00101216
0.00105994
0.00123344
0.00128087
0.001003
0.000698854
0.000460784
0.000330413
0.00029542
0.000303311
0.00030562
0.000286283
0.000250855
0.000210061
0.000173427
0.000149256
0.000139116
0.000136836
0.000136967
0.000136955
0.000135019
0.000127841
0.000115643
0.000102895
9.16309e-05
8.67415e-05
9.54332e-05
0.000127026
0.000180762
0.000346045
0.000360095
0.00601053
0.00870112
0.00756518
0.00627718
0.00493696
0.00362416
0.00263272
0.00194178
0.00148161
0.00131734
0.00147005
0.00167605
0.00146029
0.00102315
0.000635962
0.000382489
0.00028184
0.000268323
0.000274873
0.000268704
0.00024399
0.000210306
0.000178134
0.000154515
0.000142833
0.000141924
0.000147928
0.000158364
0.000172706
0.000191097
0.000213163
0.00023333
0.000249936
0.000279428
0.000334569
0.000475533
0.000773566
0.00130558
0.00451174
0.00125866
0.000828011
0.00282626
0.00300194
0.00267195
0.00219931
0.00179082
0.00166238
0.00192861
0.00226554
0.00219542
0.00139107
0.000787806
0.00042813
0.000284998
0.000237546
0.000227814
0.000222207
0.000207718
0.000185816
0.000162354
0.000143841
0.000133635
0.000132198
0.000138125
0.000149981
0.000167696
0.000192587
0.000227062
0.000274515
0.000339133
0.000428533
0.00055684
0.000744423
0.000999833
0.00130188
0.00159645
0.00184231
0.00103636
0.00156859
0.00122544
0.00168702
0.00195925
0.00215573
0.0025513
0.0030554
0.00322519
0.00280806
0.00195004
0.000790938
0.000451568
0.000288818
0.000223176
0.000198847
0.000187981
0.000177532
0.000163663
0.000148124
0.000134204
0.000124347
0.000119805
0.000120599
0.00012612
0.000136024
0.000150729
0.000171535
0.000200791
0.000242314
0.000301873
0.000385919
0.000503149
0.000661188
0.000855201
0.00105822
0.00122504
0.00117609
0.000580581
0.00746353
0.00842872
0.00203868
0.00234915
0.00299027
0.00345599
0.00386622
0.00387629
0.00330923
0.00243821
0.001528
0.000789063
0.000326727
0.00025536
0.000219012
0.000202027
0.000191972
0.000182889
0.000172464
0.00016103
0.000150192
0.000141355
0.000135169
0.000131862
0.000131774
0.000135292
0.000142915
0.000155516
0.00017446
0.000201783
0.000240447
0.000294429
0.000369262
0.000471181
0.00060383
0.00076184
0.000939001
0.00126671
0.000647918
0.000645976
0.00327154
0.00387477
0.00357561
0.00438116
0.00459458
0.00410193
0.00323545
0.00222497
0.00136093
0.000789177
0.000467855
0.000341417
0.000271869
0.000246695
0.000225363
0.000207229
0.000189893
0.000172123
0.000154736
0.000139691
0.000128678
0.000122318
0.000120391
0.0001225
0.000127955
0.000136414
0.000148077
0.000163485
0.000183625
0.000209946
0.000243379
0.000285798
0.000339369
0.000406778
0.000490662
0.000594024
0.000663787
0.000493847
0.000404065
0.000590233
0.0128355
0.0161982
0.00840419
0.00429142
0.00233689
0.00149461
0.00122264
0.00113678
0.00104594
0.00101506
0.00114206
0.00130101
0.00939505
0.00837903
0.00687995
0.0056301
0.00425217
0.00308054
0.00226021
0.00168034
0.0013565
0.00136299
0.00159218
0.00167973
0.00237229
0.00301074
0.00287195
0.00243868
0.00197446
0.00167738
0.00175487
0.00212332
0.00229711
0.00198141
0.00094507
0.00148066
0.00184424
0.00205178
0.0023127
0.00281184
0.00320824
0.00309013
0.0024051
0.00149798
0.0221614
0.00474133
0.00203673
0.00272911
0.00321631
0.0036975
0.00394281
0.00365673
0.00289134
0.00197654
0.00111787
0.00055166
0.00929334
0.00361252
0.00394826
0.00460854
0.00440824
0.0037034
0.00273015
0.00175925
0.00103923
0.000600857
0.000384435
0.000315828
0.013956
0.011313
0.00960753
0.00714657
0.0048447
0.00315538
0.00218074
0.00165367
0.00132722
0.00116049
0.00123006
0.0014273
0.00711744
0.00936058
0.00766603
0.00544979
0.00430682
0.00334541
0.00253834
0.00192423
0.00154186
0.00153343
0.00181273
0.00195639
0.00168859
0.00150875
0.0020165
0.00210735
0.00197304
0.00186993
0.00212412
0.00258324
0.00270188
0.00223991
0.000675809
0.00148485
0.00200434
0.00242768
0.00298215
0.00359912
0.0037229
0.00322553
0.00235285
0.00135806
0.00768897
0.00623091
0.00281279
0.00336445
0.00395014
0.004045
0.00379941
0.00314147
0.00225502
0.00145662
0.000835565
0.00045365
0.00583382
0.00430689
0.00516222
0.00579683
0.00561456
0.00472345
0.003501
0.00229964
0.00139731
0.000828726
0.000523951
0.000448934
0.0119427
0.0110201
0.00837645
0.0059512
0.00390202
0.00258776
0.00188093
0.00147314
0.00121853
0.0011652
0.00133137
0.00147421
0.00750079
0.00978358
0.00629323
0.00483747
0.00381098
0.00291809
0.00220984
0.00169447
0.00148641
0.00165945
0.00192896
0.00186358
0.00113386
0.00182039
0.00210462
0.00205317
0.00189968
0.0019446
0.002362
0.00271353
0.002534
0.00185646
0.000872118
0.00178292
0.00220876
0.00268259
0.00330937
0.00375857
0.00353184
0.00282618
0.00181594
0.00100081
0.0179921
0.00421816
0.0029501
0.00375093
0.0040344
0.00397517
0.00351893
0.00270365
0.00183338
0.00112133
0.000610236
0.000364948
0.0039922
0.00477845
0.00550652
0.00582356
0.00523104
0.0041326
0.00287557
0.00180333
0.00107621
0.000645997
0.000459827
0.000481241
)
;

boundaryField
{
    floor
    {
        Cmu             0.09;
        kappa           0.41;
        E               9.8;
        type            epsilonWallFunction;
        value           nonuniform List<scalar> 
36
(
0.00053069
5.0484e-05
8.12845e-05
0.000121591
0.000141513
0.000135842
0.000109783
8.52733e-05
6.69029e-05
5.34486e-05
4.34369e-05
3.58586e-05
3.00078e-05
2.5425e-05
2.17177e-05
1.85788e-05
1.5764e-05
1.40042e-05
1.07291e-05
1.07291e-05
2.2437e-05
3.59597e-05
5.41439e-05
0.000129102
0.000152482
0.000195001
0.00053069
0.000999502
0.000562715
0.000298658
5.0484e-05
0.000298658
4.84747e-05
0.000548039
0.000172674
0.000849676
)
;
    }
    ceiling
    {
        Cmu             0.09;
        kappa           0.41;
        E               9.8;
        type            epsilonWallFunction;
        value           nonuniform List<scalar> 
58
(
0.0039922
0.00477845
0.00550652
0.00582356
0.00523104
0.0041326
0.00287557
0.00180333
0.00107621
0.000645997
0.000459827
0.000481241
0.000271869
0.000246695
0.000225363
0.000207229
0.000189893
0.000172123
0.000154736
0.000139691
0.000128678
0.000122318
0.000120391
0.0001225
0.000127955
0.000136414
0.000148077
0.000163485
0.000183625
0.000209946
0.000243379
0.000285798
0.000339369
0.000406778
0.000490662
0.000594024
0.000663787
0.000493847
0.000404065
0.000590233
0.00750079
0.00978358
0.000675809
0.00327154
0.00430689
0.00516222
0.00579683
0.00561456
0.00472345
0.003501
0.00229964
0.00139731
0.000828726
0.000523951
0.000448934
0.00601053
0.00936058
0.00156859
)
;
    }
    sWall
    {
        Cmu             0.09;
        kappa           0.41;
        E               9.8;
        type            epsilonWallFunction;
        value           nonuniform List<scalar> 4(0.00768897 0.00583382 0.00746353 0.00327154);
    }
    nWall
    {
        Cmu             0.09;
        kappa           0.41;
        E               9.8;
        type            epsilonWallFunction;
        value           nonuniform List<scalar> 6(0.000195001 0.000218249 0.000360095 0.000580581 0.000645976 0.000590233);
    }
    sideWalls
    {
        type            empty;
    }
    glass1
    {
        Cmu             0.09;
        kappa           0.41;
        E               9.8;
        type            epsilonWallFunction;
        value           nonuniform List<scalar> 10(0.00039506 0.00095702 0.00178652 0.00303818 0.00478743 0.0073981 0.013956 0.00711744 0.0122763 0.00601053);
    }
    glass2
    {
        Cmu             0.09;
        kappa           0.41;
        E               9.8;
        type            epsilonWallFunction;
        value           nonuniform List<scalar> 2(0.00125866 0.00103636);
    }
    sun
    {
        Cmu             0.09;
        kappa           0.41;
        E               9.8;
        type            epsilonWallFunction;
        value           nonuniform List<scalar> 
14
(
0.00039506
0.000503953
0.000538033
0.000618893
0.000700835
0.000784909
0.000874902
0.000977086
0.00108696
0.00119534
0.00128383
0.00131433
0.00123387
0.00100178
)
;
    }
    Table_master
    {
        Cmu             0.09;
        kappa           0.41;
        E               9.8;
        type            epsilonWallFunction;
        value           nonuniform List<scalar> 9(0.000277337 0.000182576 0.00012265 8.50773e-05 6.10662e-05 4.53082e-05 3.46755e-05 2.74113e-05 2.25462e-05);
    }
    Table_slave
    {
        Cmu             0.09;
        kappa           0.41;
        E               9.8;
        type            epsilonWallFunction;
        value           nonuniform List<scalar> 9(0.000412776 0.000311225 0.00024961 0.000207958 0.000176089 0.000150023 0.00012767 0.000106895 8.61754e-05);
    }
    inlet
    {
        type            turbulentMixingLengthDissipationRateInlet;
        mixingLength    0.01;
        phi             phi;
        k               k;
        value           uniform 0.000471671;
    }
    outlet
    {
        type            zeroGradient;
    }
}


// ************************************************************************* //
