/*--------------------------------*- C++ -*----------------------------------*\
  =========                 |
  \\      /  F ield         | OpenFOAM: The Open Source CFD Toolbox
   \\    /   O peration     | Website:  https://openfoam.org
    \\  /    A nd           | Version:  6
     \\/     M anipulation  |
\*---------------------------------------------------------------------------*/
FoamFile
{
    version     2.0;
    format      ascii;
    class       volScalarField;
    location    "1300";
    object      epsilon;
}
// * * * * * * * * * * * * * * * * * * * * * * * * * * * * * * * * * * * * * //

dimensions      [0 2 -3 0 0 0 0];

internalField   nonuniform List<scalar> 
778
(
0.000231995
0.000366234
0.000293806
0.000403689
0.000821028
0.0020413
0.000180562
0.000911503
0.00184678
0.00342842
0.000137988
0.00092803
0.00149036
0.00289558
0.0042982
0.000109499
0.000776059
0.001193
0.00209899
0.00404008
0.00506478
8.48937e-05
0.000635812
0.000956095
0.00147301
0.00269663
0.00532159
0.00578447
6.47624e-05
0.00044051
0.00077247
0.00106393
0.00170484
0.00317797
0.00636764
0.00653283
5.67931e-05
0.000171922
0.000620152
0.000814005
0.00111916
0.00180777
0.00333901
0.00686631
0.00745102
5.33936e-05
6.47588e-05
0.00043858
0.00065275
0.000803901
0.00109252
0.00171481
0.00321885
0.0069388
0.00874576
5.30746e-05
4.49979e-05
0.000167919
0.000509373
0.000635397
0.000744807
0.000975015
0.0014679
0.00294492
0.00713914
0.0107058
5.45584e-05
4.17964e-05
6.92362e-05
0.000304048
0.000521143
0.000587491
0.000645807
0.000793079
0.00121882
0.00305442
0.00822514
0.0135403
5.95165e-05
4.4644e-05
4.89402e-05
0.000124368
0.000372675
0.000509734
0.000525282
0.000541108
0.000648158
0.00109388
0.00347803
0.010433
0.0178303
7.30373e-05
5.63342e-05
4.2162e-05
6.64295e-05
0.000192075
0.000407489
0.00049392
0.000473519
0.000461897
0.000543494
0.00104053
0.00427279
0.0153622
0.0248209
0.000107609
8.93927e-05
4.13036e-05
4.47015e-05
9.47158e-05
0.000243023
0.000423719
0.000478727
0.000436897
0.000405977
0.000470121
0.00105819
0.00584004
0.028943
0.0381119
0.00017394
4.85271e-05
3.58196e-05
5.33571e-05
0.000122509
0.000270501
0.000422836
0.000460459
0.000410224
0.000367855
0.000422775
0.00120559
0.00906978
0.0662089
0.000294632
8.60772e-05
3.75456e-05
3.68711e-05
6.32745e-05
0.000138562
0.000269974
0.000399084
0.00043273
0.000387123
0.000344065
0.000412108
0.00150959
0.109025
0.000496184
0.000236665
6.02927e-05
3.52491e-05
4.03751e-05
6.9429e-05
0.000136687
0.000244699
0.000354522
0.000393335
0.000364658
0.000339078
0.000502219
0.00561867
0.291609
0.00031007
0.000690467
0.000162783
4.84714e-05
3.53308e-05
4.31074e-05
6.94796e-05
0.000121795
0.000206464
0.000299102
0.000346668
0.00034588
0.000377293
0.000811404
0.0764798
0.110504
0.000586887
0.000549015
8.73832e-05
3.95421e-05
3.52878e-05
4.38458e-05
6.47638e-05
0.000103786
0.000168349
0.000245534
0.000302499
0.000344946
0.000523873
0.00286752
0.0362859
0.0698746
0.00152204
0.000172299
4.87019e-05
3.45487e-05
3.51815e-05
4.33008e-05
5.97883e-05
9.01678e-05
0.000140329
0.000206957
0.000280408
0.000415819
0.00107159
0.00632777
0.0258559
0.038667
0.0338575
0.000621059
0.000284227
6.02239e-05
3.613e-05
3.28357e-05
3.58958e-05
4.40744e-05
5.95346e-05
8.6851e-05
0.000132522
0.000205302
0.000343663
0.000817545
0.00326269
0.0151637
0.0220792
0.018511
0.0234764
0.0179031
0.000833288
0.000336056
7.17102e-05
3.8388e-05
3.30267e-05
3.39701e-05
3.91526e-05
4.99324e-05
6.95236e-05
0.000104299
0.000169104
0.000313546
0.000773787
0.00278571
0.0110715
0.0188746
0.0156372
0.01287
0.0154967
0.000477007
0.000144058
0.00018098
7.16578e-05
4.13273e-05
3.45294e-05
3.44772e-05
3.85619e-05
4.82666e-05
6.73229e-05
0.000103233
0.000174198
0.000339582
0.000845732
0.00279109
0.0102422
0.0177415
0.0139465
0.00909134
0.000319847
0.000521948
5.46506e-05
6.27507e-05
5.89011e-05
4.26925e-05
3.68033e-05
3.62939e-05
3.99909e-05
4.98278e-05
7.07657e-05
0.000113076
0.000200784
0.000405335
0.000991216
0.00302213
0.0101255
0.0177631
0.0127557
0.000121917
0.000565581
0.000104865
5.22373e-05
4.70075e-05
4.55669e-05
4.28508e-05
3.94217e-05
3.89865e-05
4.25818e-05
5.29513e-05
7.64333e-05
0.00012661
0.000234769
0.000486593
0.00116523
0.0033026
0.0102404
0.0185581
0.0118628
0.000124946
0.000163505
3.20315e-05
6.5555e-05
5.11992e-05
4.65784e-05
4.42166e-05
4.25577e-05
4.2414e-05
4.60265e-05
5.7018e-05
8.30954e-05
0.000141116
0.000269492
0.00056814
0.00133428
0.00356309
0.0103958
0.0196548
0.0113902
3.57386e-05
4.82449e-05
1.81959e-05
8.76587e-05
5.99195e-05
5.28039e-05
4.89718e-05
4.68367e-05
4.6644e-05
5.02443e-05
6.18026e-05
9.02661e-05
0.000155494
0.000302284
0.000641331
0.00148435
0.00377016
0.0104951
0.0206775
0.0112663
1.73063e-05
1.28822e-05
6.69954e-06
0.000105546
7.04645e-05
6.10872e-05
5.58523e-05
5.26552e-05
5.1864e-05
5.5269e-05
6.72542e-05
9.77567e-05
0.000169232
0.000331883
0.000704044
0.00160048
0.00392361
0.0104946
0.0214096
0.0113978
6.80974e-06
4.45219e-06
8.70357e-06
0.000126837
8.23312e-05
7.08721e-05
6.41784e-05
5.98309e-05
5.82021e-05
6.11994e-05
7.34195e-05
0.000105545
0.000182127
0.000357705
0.000755567
0.00168707
0.00402577
0.0103856
0.0217829
0.0116833
3.68714e-06
4.88897e-06
1.24295e-05
0.000153107
9.68396e-05
8.24041e-05
7.39257e-05
6.82826e-05
6.57058e-05
6.81551e-05
8.04199e-05
0.000113735
0.000194219
0.000379677
0.000796156
0.00174757
0.0040734
0.0101909
0.0218278
0.0120272
3.21814e-06
6.70585e-06
1.76409e-05
0.000187063
0.000115027
9.63096e-05
8.53852e-05
7.81468e-05
7.44833e-05
7.62855e-05
8.84413e-05
0.000122543
0.000205757
0.000398176
0.000826888
0.00178607
0.00407831
0.00994935
0.0216237
0.0123533
3.4214e-06
9.3687e-06
2.55239e-05
0.000233364
0.000138369
0.000113371
9.90374e-05
8.97203e-05
8.47497e-05
8.58045e-05
9.77422e-05
0.000132301
0.000217184
0.000413877
0.00084968
0.0018072
0.00405352
0.0096892
0.0212632
0.0126119
3.97444e-06
1.27755e-05
3.8636e-05
0.000300327
0.000169155
0.00013467
0.000115545
0.000103443
9.68279e-05
9.70065e-05
0.000108664
0.000143455
0.00022914
0.000427649
0.000866402
0.00181744
0.00400987
0.00943075
0.0208306
0.0127807
4.80791e-06
1.70698e-05
6.28165e-05
0.000401034
0.000211048
0.000161809
0.000135841
0.000119931
0.000111167
0.000110278
0.000121638
0.000156578
0.000242505
0.000440758
0.000878287
0.00182173
0.00395401
0.00918745
0.0203914
0.0128595
5.95779e-06
2.26435e-05
0.000112931
0.000568457
0.000269318
0.000197322
0.000161306
0.000140066
0.000128392
0.000126127
0.000137204
0.000172377
0.000258346
0.000455237
0.000887648
0.00182022
0.00389077
0.00896726
0.019989
0.0128622
7.4898e-06
3.05591e-05
0.000232354
0.000431788
0.000353268
0.00024539
0.000193982
0.00016503
0.000149398
0.000145227
0.000156039
0.000191716
0.000277974
0.000473291
0.000899766
0.0018164
0.00382778
0.00877426
0.0196488
0.0128094
9.30109e-06
4.84583e-05
0.000281909
0.000638308
0.000478638
0.000313629
0.00023737
0.000196633
0.000174986
0.000168321
0.000178993
0.00021566
0.000302905
0.00049763
0.000919499
0.00181222
0.00376984
0.00860999
0.0193821
0.0127222
1.1394e-05
9.23552e-05
0.000532532
0.00111372
0.00070867
0.000417831
0.000297662
0.000238047
0.000206901
0.000195673
0.000205378
0.000243886
0.000333997
0.000529161
0.000941696
0.00180788
0.0037205
0.00847423
0.019191
0.0126192
1.86911e-05
0.00021627
0.00139189
0.00107573
0.00112159
0.000595082
0.000387063
0.000294891
0.000248194
0.000228936
0.000235955
0.000275031
0.000366605
0.000560487
0.000964255
0.00180861
0.00368252
0.00836601
0.0190718
0.0125145
3.82021e-05
0.000639003
0.000709213
0.00185743
0.000925958
0.000533009
0.000378059
0.000304479
0.000270887
0.000272088
0.000310404
0.000402836
0.000595508
0.000991285
0.00181724
0.0036583
0.00828434
0.0190182
0.0124176
0.000108983
0.000343633
0.00235754
0.00158915
0.000805879
0.000511169
0.00038696
0.000326806
0.000316092
0.00035138
0.000444037
0.000636094
0.00102527
0.00183618
0.00364986
0.00822864
0.0190236
0.0123336
0.000107481
0.00241827
0.00291954
0.0014261
0.000753137
0.000520066
0.000407714
0.000372365
0.000399848
0.000491802
0.000683512
0.00106833
0.00186764
0.00365917
0.00819897
0.0190821
0.0122642
0.00201965
0.00460626
0.00328564
0.00129828
0.000762901
0.000538457
0.000450557
0.00045898
0.000547827
0.000739841
0.00112247
0.00191395
0.00368835
0.00819625
0.0191901
0.012209
0.00390274
0.00931367
0.0034039
0.00129316
0.000777744
0.000574269
0.000535721
0.000614193
0.000806821
0.00118979
0.00197746
0.0037399
0.00822247
0.0193465
0.0121663
0.00670569
0.0141289
0.00302037
0.00127121
0.000804397
0.00064883
0.000694754
0.000885851
0.00127209
0.00206054
0.00381662
0.00828079
0.0195532
0.0121338
0.0104438
0.0126689
0.00243677
0.00129944
0.000854224
0.00080101
0.000978316
0.00137033
0.00216511
0.00392141
0.0083754
0.0198145
0.0121095
0.00867028
0.00534941
0.00247339
0.00132103
0.000975349
0.00108876
0.00148396
0.00229156
0.00405652
0.00851102
0.0201366
0.0120921
0.00301765
0.00519006
0.00254605
0.00137646
0.00124249
0.00161185
0.00243703
0.00422188
0.00869166
0.0205261
0.0120807
0.00308628
0.00560863
0.00256314
0.00156711
0.00176486
0.00259379
0.00441161
0.00891766
0.0209874
0.0120752
0.00349042
0.00574961
0.00262709
0.00203996
0.00275643
0.00460879
0.00917968
0.0215174
0.0120751
0.0038214
0.00560608
0.0029468
0.00298814
0.00478576
0.00944842
0.0220953
0.0120785
0.00415378
0.00539182
0.00374974
0.00495906
0.00966583
0.0226652
0.0120792
0.00471073
0.00569939
0.00551283
0.00978471
0.0231316
0.0120623
0.00563323
0.00714861
0.0100525
0.0234872
0.0120005
0.00742378
0.0114681
0.0243866
0.0118676
0.0110068
0.0232171
0.0116668
0.0174114
0.0107143
0.00769012
)
;

boundaryField
{
    floor
    {
        Cmu             0.09;
        kappa           0.41;
        E               9.8;
        type            epsilonWallFunction;
        value           nonuniform List<scalar> 
36
(
0.000107609
0.000121917
0.000124946
3.57386e-05
1.73063e-05
6.80974e-06
3.68714e-06
3.21814e-06
3.4214e-06
3.97444e-06
4.80791e-06
5.95779e-06
7.4898e-06
9.30109e-06
1.1394e-05
1.86911e-05
3.82021e-05
0.000108983
0.000107481
0.000107481
0.000343633
0.000709213
0.00107573
0.00235754
0.00241827
0.00201965
0.000107609
0.000294632
0.000496184
0.00031007
0.000121917
0.00031007
0.000319847
0.000586887
0.000477007
0.000621059
)
;
    }
    ceiling
    {
        Cmu             0.09;
        kappa           0.41;
        E               9.8;
        type            epsilonWallFunction;
        value           nonuniform List<scalar> 
43
(
0.00909134
0.0154967
0.0179031
0.0156372
0.0139465
0.0127557
0.0118628
0.0113902
0.0112663
0.0113978
0.0116833
0.0120272
0.0123533
0.0126119
0.0127807
0.0128595
0.0128622
0.0128094
0.0127222
0.0126192
0.0125145
0.0124176
0.0123336
0.0122642
0.012209
0.0121663
0.0121338
0.0121095
0.0120921
0.0120807
0.0120752
0.0120751
0.0120785
0.0120792
0.0120623
0.0120005
0.0118676
0.0116668
0.0107143
0.00769012
0.0381119
0.0662089
0.110504
)
;
    }
    sWall
    {
        Cmu             0.09;
        kappa           0.41;
        E               9.8;
        type            epsilonWallFunction;
        value           nonuniform List<scalar> 9(0.00874576 0.0107058 0.0135403 0.0178303 0.0248209 0.0381119 0.018511 0.01287 0.00909134);
    }
    nWall
    {
        Cmu             0.09;
        kappa           0.41;
        E               9.8;
        type            epsilonWallFunction;
        value           nonuniform List<scalar> 
14
(
0.00201965
0.00390274
0.00670569
0.00301765
0.00308628
0.00349042
0.0038214
0.00415378
0.00471073
0.00563323
0.00742378
0.0110068
0.0174114
0.00769012
)
;
    }
    sideWalls
    {
        type            empty;
    }
    glass1
    {
        Cmu             0.09;
        kappa           0.41;
        E               9.8;
        type            epsilonWallFunction;
        value           nonuniform List<scalar> 9(0.000231995 0.000293806 0.0020413 0.00342842 0.0042982 0.00506478 0.00578447 0.00653283 0.00745102);
    }
    glass2
    {
        Cmu             0.09;
        kappa           0.41;
        E               9.8;
        type            epsilonWallFunction;
        value           nonuniform List<scalar> 2(0.0104438 0.00867028);
    }
    sun
    {
        Cmu             0.09;
        kappa           0.41;
        E               9.8;
        type            epsilonWallFunction;
        value           nonuniform List<scalar> 
14
(
0.000231995
0.000366234
0.000403689
0.000180562
0.000137988
0.000109499
8.48937e-05
6.47624e-05
5.67931e-05
5.33936e-05
5.30746e-05
5.45584e-05
5.95165e-05
7.30373e-05
)
;
    }
    Table_master
    {
        Cmu             0.09;
        kappa           0.41;
        E               9.8;
        type            epsilonWallFunction;
        value           nonuniform List<scalar> 9(6.69954e-06 8.70357e-06 1.24295e-05 1.76409e-05 2.55239e-05 3.8636e-05 6.28165e-05 0.000112931 0.000232354);
    }
    Table_slave
    {
        Cmu             0.09;
        kappa           0.41;
        E               9.8;
        type            epsilonWallFunction;
        value           nonuniform List<scalar> 9(8.76587e-05 0.000105546 0.000126837 0.000153107 0.000187063 0.000233364 0.000300327 0.000401034 0.000568457);
    }
    inlet
    {
        type            fixedValue;
        value           uniform 0.00082175;
    }
    outlet
    {
        type            zeroGradient;
    }
}


// ************************************************************************* //
