/*--------------------------------*- C++ -*----------------------------------*\
  =========                 |
  \\      /  F ield         | OpenFOAM: The Open Source CFD Toolbox
   \\    /   O peration     | Website:  https://openfoam.org
    \\  /    A nd           | Version:  6
     \\/     M anipulation  |
\*---------------------------------------------------------------------------*/
FoamFile
{
    version     2.0;
    format      ascii;
    class       volScalarField;
    location    "1300";
    object      nut;
}
// * * * * * * * * * * * * * * * * * * * * * * * * * * * * * * * * * * * * * //

dimensions      [0 2 -1 0 0 0 0];

internalField   nonuniform List<scalar> 
662
(
0.00103737
0.00112507
0.00114987
0.00120481
0.0012558
0.00130413
0.00135218
0.0014029
0.00145363
0.00150041
0.00153656
0.00154863
0.00151636
0.00141461
0.00114461
0.000522519
0.000612427
0.000700409
0.000736743
0.000726767
0.000676957
0.000622283
0.000573938
0.000532552
0.000496977
0.00046621
0.000439334
0.000415723
0.000394447
0.000374447
0.000354492
0.000340778
0.000311822
0.00139323
0.00300171
0.00270526
0.00309153
0.00346978
0.00385647
0.00422368
0.00452366
0.00482806
0.00519846
0.00561987
0.0060345
0.00633189
0.00633244
0.00545644
0.00141354
0.00116719
0.000945011
0.000515491
0.00123666
0.00183159
0.00229269
0.0024378
0.00174957
0.00146302
0.00126881
0.00112639
0.00101812
0.000932968
0.00086447
0.000801361
0.000736845
0.000677105
0.000627022
0.000753119
0.000398756
0.00171547
0.00416809
0.00316037
0.00393763
0.00429427
0.00451906
0.00463648
0.00469736
0.00481315
0.00507214
0.00551741
0.00613978
0.00680754
0.00719879
0.00701504
0.00585029
0.00454429
0.00115695
0.000787279
0.00136928
0.00202984
0.00269553
0.00289707
0.000921976
0.000802042
0.000702434
0.000621805
0.000556737
0.000504014
0.000461025
0.000426278
0.0003994
0.000441269
0.00051326
0.000885306
0.00046665
0.00204763
0.00568282
0.00319294
0.00408174
0.004464
0.00449317
0.00432844
0.00413563
0.00407092
0.00421407
0.00466037
0.00542808
0.00633937
0.00691351
0.00713099
0.0069448
0.00609866
0.00339352
0.00133905
0.00163188
0.00224201
0.00304202
0.00376968
0.00384467
0.00105266
0.000958093
0.000890164
0.000837609
0.000792429
0.000751223
0.000711889
0.000670968
0.000624469
0.000582868
0.000574728
0.00105843
0.000534854
0.00238277
0.00738865
0.00408956
0.00377186
0.00432632
0.00443508
0.00420861
0.00381453
0.00363229
0.00368998
0.00415284
0.00500745
0.00594341
0.00653432
0.006806
0.00684553
0.00655552
0.00549198
0.00490937
0.00497599
0.00529348
0.00566141
0.00589273
0.00580006
0.00491618
0.00442592
0.00412998
0.00390867
0.00369078
0.00339586
0.00300394
0.00253016
0.00200643
0.00151103
0.00112972
0.00107095
0.000904762
0.000714543
0.000755304
0.000819838
0.00275478
0.00886159
0.00593518
0.00401359
0.00382176
0.00396889
0.00402058
0.00374015
0.00355384
0.00356374
0.00401541
0.00492663
0.00592654
0.0064458
0.00662466
0.00665472
0.00668235
0.00665435
0.00686075
0.00720557
0.00744558
0.00749739
0.00735041
0.00701851
0.00651963
0.0060836
0.00572176
0.00539176
0.0050636
0.00470534
0.00426584
0.00373574
0.00311877
0.00246131
0.00188161
0.00136802
0.00111705
0.000974092
0.0012176
0.000851205
0.00129428
0.00411719
0.00541762
0.00479426
0.00414089
0.00387825
0.00385375
0.00376279
0.00356187
0.00346956
0.00387124
0.00487027
0.00631786
0.00666644
0.00674796
0.00683176
0.00718575
0.00772286
0.0082261
0.00852313
0.00852628
0.0082778
0.0078483
0.00730958
0.0067356
0.00621728
0.00576938
0.00537173
0.00500937
0.00468004
0.00438303
0.00403639
0.00358271
0.00303285
0.0024963
0.00198987
0.00165212
0.00149284
0.00138365
0.00100583
0.0010201
0.00206677
0.00297488
0.0035847
0.00387134
0.00387136
0.0037501
0.00354119
0.00331483
0.00346498
0.00434515
0.00563218
0.0068832
0.00703596
0.00709252
0.00745637
0.00809197
0.00853097
0.00877698
0.00877746
0.00848658
0.00796527
0.00729782
0.00657378
0.00589074
0.00532262
0.00487155
0.00450963
0.00422102
0.00400508
0.00386699
0.00379387
0.00365508
0.00334105
0.00305265
0.00288382
0.00290241
0.00296401
0.00358871
0.00152646
0.0002551
0.0012279
0.00196694
0.00243247
0.00264015
0.00272323
0.00308581
0.00415922
0.00563581
0.00677464
0.00729769
0.00734092
0.00760896
0.00797437
0.00824241
0.00832145
0.00822511
0.00790628
0.00735755
0.00662679
0.00582246
0.00506378
0.00444299
0.00397866
0.00363301
0.00336549
0.00315101
0.00297373
0.00282084
0.00268162
0.00257126
0.00248428
0.00242744
0.00239659
0.0023437
0.00223553
0.00208713
0.00143072
0.000651889
0.000622307
0.00111307
0.00169871
0.00234491
0.00338136
0.00486212
0.00625003
0.00706822
0.00727453
0.00717103
0.00721879
0.00734584
0.00734839
0.0072307
0.00701064
0.00664857
0.00611694
0.00545226
0.00474571
0.00408788
0.00355517
0.00317059
0.00290309
0.00271277
0.00257337
0.00247159
0.00240195
0.0023643
0.00236018
0.0023723
0.0023949
0.0024205
0.00243117
0.00240276
0.00232565
0.00207808
0.00117943
0.00109645
0.003206
0.00172808
0.00148838
0.00227984
0.0033868
0.00477359
0.00604056
0.00677735
0.00688236
0.00655141
0.0060907
0.00549221
0.00545501
0.00534305
0.00518843
0.00498723
0.00471349
0.00434801
0.00391219
0.00346496
0.00306788
0.00275332
0.00252079
0.00235853
0.0022534
0.00219163
0.00216389
0.00216283
0.00218307
0.00222938
0.0022958
0.00237762
0.0024681
0.00255439
0.00261904
0.002669
0.00277864
0.00187671
0.00122215
0.000832895
0.00215754
0.00297329
0.00364997
0.00417899
0.00460487
0.00484298
0.00479631
0.004459
0.00387526
0.00300536
0.00188837
0.000915891
0.000886705
0.000860375
0.000836652
0.000812641
0.000786458
0.000759031
0.000733586
0.000713777
0.000701815
0.000698107
0.000702157
0.000712427
0.000727789
0.000747966
0.000773056
0.000803577
0.000840272
0.000882697
0.000931258
0.000986146
0.00104754
0.0011151
0.00118846
0.00123328
0.0011175
0.0010452
0.00118592
0.00216586
0.00562023
0.00535243
0.004449
0.00397111
0.00385052
0.00383483
0.00366875
0.00348377
0.00359013
0.00432056
0.00544247
0.00160713
0.00260332
0.00330818
0.00377453
0.00389557
0.00381884
0.00366263
0.0034115
0.00331095
0.00381484
0.00498491
0.00618055
0.000800954
0.00162854
0.00223506
0.00256414
0.00267741
0.00283394
0.00353087
0.00489619
0.00628276
0.00707594
0.000490884
0.000841558
0.00140452
0.00200131
0.00278766
0.00408668
0.0056076
0.00674397
0.00723281
0.00726456
0.00324218
0.00276311
0.00132162
0.00184101
0.0027914
0.00408035
0.00544802
0.00649349
0.00689842
0.00675629
0.00631569
0.00592703
0.00224119
0.00255092
0.0033889
0.00392275
0.00440857
0.00475544
0.00485815
0.00466057
0.00419765
0.00348197
0.00245407
0.0013727
0.00135081
0.00273317
0.00408958
0.00449657
0.00434647
0.00408244
0.00390876
0.00372654
0.00348248
0.0034446
0.00402911
0.00517826
0.00107923
0.00118243
0.00159134
0.00230472
0.00288985
0.00317909
0.0032274
0.00313677
0.00310985
0.00364246
0.00487633
0.00619554
0.00044941
0.00068608
0.00133116
0.00187805
0.00225026
0.00263905
0.00360595
0.00512223
0.00647495
0.00719163
0.000492356
0.000791297
0.00134488
0.00214139
0.0033117
0.00487437
0.00619448
0.00695045
0.00713009
0.0069417
0.00110738
0.00301807
0.00271631
0.00285557
0.00368852
0.00464745
0.00555926
0.00614711
0.00624851
0.00590742
0.00530813
0.00474296
0.00101
0.000912839
0.000969658
0.00100787
0.000997191
0.000941369
0.000851931
0.000740563
0.000627251
0.000527007
0.000452319
0.000429612
0.00187229
0.00363749
0.00440599
0.00446367
0.00420851
0.00398244
0.00383102
0.00360296
0.00340982
0.00364427
0.00456806
0.00575653
0.00109827
0.00119998
0.00194754
0.0026315
0.00307039
0.00322732
0.00319464
0.00308739
0.00327785
0.00419781
0.00557579
0.0066486
0.000420458
0.00100639
0.00162727
0.00208156
0.00241508
0.00302611
0.00433589
0.00586207
0.00691921
0.00730856
0.00056906
0.00103851
0.00170918
0.00266911
0.0040679
0.00560867
0.0066444
0.00710879
0.00706625
0.00687676
0.0031844
0.00302602
0.00265962
0.0032429
0.00416006
0.00513075
0.0059078
0.00626033
0.00612437
0.0056249
0.00499812
0.00468386
0.000890042
0.000945007
0.000990753
0.00100941
0.000973948
0.000900357
0.00079784
0.000682917
0.000574969
0.000485018
0.000433058
0.000439681
)
;

boundaryField
{
    floor
    {
        type            nutkWallFunction;
        Cmu             0.09;
        kappa           0.41;
        E               9.8;
        value           nonuniform List<scalar> 
36
(
0.000137591
6.25886e-05
7.39014e-05
8.47774e-05
8.922e-05
8.8003e-05
8.18955e-05
7.51288e-05
6.90853e-05
6.38623e-05
5.93324e-05
5.53822e-05
5.19049e-05
4.88277e-05
4.60358e-05
4.33937e-05
4.07395e-05
3.8904e-05
3.49964e-05
3.49963e-05
4.66016e-05
5.54375e-05
6.41525e-05
8.65081e-05
9.14793e-05
9.92859e-05
0.000137591
0.00016836
0.000140203
0.000114226
6.25886e-05
0.000114226
6.16946e-05
0.00013902
9.5356e-05
0.00015991
)
;
    }
    ceiling
    {
        type            nutkWallFunction;
        Cmu             0.09;
        kappa           0.41;
        E               9.8;
        value           nonuniform List<scalar> 
58
(
0.000107684
0.000114209
0.000119607
0.000121804
0.000117635
0.00010892
9.66328e-05
8.26298e-05
6.92152e-05
5.78008e-05
5.10895e-05
5.19498e-05
0.000110772
0.000107297
0.00010415
0.000101305
9.84166e-05
9.52551e-05
9.19302e-05
8.88328e-05
8.64128e-05
8.49477e-05
8.44932e-05
8.49902e-05
8.62486e-05
8.81268e-05
9.05864e-05
9.3634e-05
9.73256e-05
0.000101742
0.00010682
0.000112598
0.000119087
0.000126296
0.000134174
0.000142668
0.000147827
0.000134454
0.000126024
0.000142379
0.000132258
0.000144031
5.88509e-05
0.000100851
0.000110396
0.000117121
0.00012162
0.00012037
0.000113787
0.000103138
8.96864e-05
7.57473e-05
6.31589e-05
5.35885e-05
5.06407e-05
0.000123125
0.000142009
7.88403e-05
)
;
    }
    sWall
    {
        type            nutkWallFunction;
        Cmu             0.09;
        kappa           0.41;
        E               9.8;
        value           nonuniform List<scalar> 4(0.000133254 0.00012188 0.000131983 0.000100854);
    }
    nWall
    {
        type            nutkWallFunction;
        Cmu             0.09;
        kappa           0.41;
        E               9.8;
        value           nonuniform List<scalar> 6(9.92868e-05 0.000103055 0.000121408 0.000141637 0.00014656 0.000142389);
    }
    sideWalls
    {
        type            empty;
    }
    glass1
    {
        type            nutkWallFunction;
        Cmu             0.09;
        kappa           0.41;
        E               9.8;
        value           nonuniform List<scalar> 10(0.0001252 0.000166279 0.000202454 0.000238967 0.000275162 0.000314715 0.000161418 0.00013011 0.000154971 0.00012317);
    }
    glass2
    {
        type            nutkWallFunction;
        Cmu             0.09;
        kappa           0.41;
        E               9.8;
        value           nonuniform List<scalar> 2(0.000181182 0.000170396);
    }
    sun
    {
        type            nutkWallFunction;
        Cmu             0.09;
        kappa           0.41;
        E               9.8;
        value           nonuniform List<scalar> 
14
(
0.000125105
0.000135326
0.000138202
0.000144545
0.000150403
0.000155931
0.000161404
0.000167158
0.00017289
0.000178157
0.000182213
0.000183565
0.000179946
0.000168481
)
;
    }
    Table_master
    {
        type            nutkWallFunction;
        Cmu             0.09;
        kappa           0.41;
        E               9.8;
        value           nonuniform List<scalar> 9(0.000111492 9.71397e-05 8.50274e-05 7.50728e-05 6.69257e-05 6.02388e-05 5.47224e-05 5.02167e-05 4.66996e-05);
    }
    Table_slave
    {
        type            nutkWallFunction;
        Cmu             0.09;
        kappa           0.41;
        E               9.8;
        value           nonuniform List<scalar> 9(0.000126888 0.000115772 0.000107708 0.000101421 9.59789e-05 9.09837e-05 8.61851e-05 8.11591e-05 7.5403e-05);
    }
    inlet
    {
        type            calculated;
        value           uniform 0.000167705;
    }
    outlet
    {
        type            calculated;
        value           nonuniform List<scalar> 4(0.00324218 0.00276311 0.00110738 0.003206);
    }
}


// ************************************************************************* //
