/*--------------------------------*- C++ -*----------------------------------*\
  =========                 |
  \\      /  F ield         | OpenFOAM: The Open Source CFD Toolbox
   \\    /   O peration     | Website:  https://openfoam.org
    \\  /    A nd           | Version:  6
     \\/     M anipulation  |
\*---------------------------------------------------------------------------*/
FoamFile
{
    version     2.0;
    format      ascii;
    class       volScalarField;
    location    "46500.0000004861722";
    object      k;
}
// * * * * * * * * * * * * * * * * * * * * * * * * * * * * * * * * * * * * * //

dimensions      [0 2 -2 0 0 0 0];

internalField   nonuniform List<scalar> 
778
(
0.00158588
0.00180108
0.00178799
0.0019466
0.0020979
0.00224024
0.00237698
0.00251264
0.00265302
0.00280639
0.00295662
0.0031029
0.00325039
0.00341277
0.00358638
0.000793078
0.00162465
0.0016511
0.00157219
0.00144451
0.00128241
0.00113042
0.000998812
0.000887102
0.000792569
0.000712839
0.000644838
0.000585867
0.000533379
0.000484663
0.000436219
0.000397939
0.000326077
0.00340687
0.00643318
0.00268756
0.00274622
0.00288795
0.00305458
0.00323499
0.00343082
0.0036441
0.00387448
0.00412656
0.00438024
0.00459585
0.00470085
0.00459489
0.00429853
0.00390746
0.00358011
0.00253547
0.00281137
0.00295331
0.00289558
0.00266283
0.00226417
0.0019052
0.00160915
0.00136955
0.00117578
0.00101699
0.000885198
0.000773943
0.000681134
0.000615114
0.00057457
0.000864192
0.000523943
0.00549055
0.0127804
0.00347795
0.0032123
0.00329767
0.00345555
0.00363697
0.0038412
0.00407158
0.00432825
0.00463631
0.00501154
0.00545141
0.00596045
0.00653085
0.00685896
0.00627684
0.00538537
0.00403729
0.00416859
0.00417134
0.00397355
0.00357557
0.0026634
0.0020138
0.0015748
0.00126893
0.0010491
0.000886866
0.000764594
0.000671803
0.000603612
0.000551431
0.000548624
0.00116552
0.000677872
0.00797311
0.0217567
0.00449096
0.00339092
0.00334174
0.00343834
0.00354974
0.00366925
0.00380954
0.00399191
0.00425977
0.00464908
0.00517162
0.00582523
0.00655422
0.00713354
0.00722713
0.00724184
0.00534322
0.00555068
0.00537617
0.00512515
0.00478634
0.00434735
0.00345485
0.00285784
0.00243472
0.00210886
0.00184964
0.00163133
0.00143802
0.00125807
0.00107719
0.000800174
0.000659426
0.00142186
0.00082132
0.0108756
0.0336315
0.00621206
0.00342511
0.00315847
0.00316718
0.00318982
0.00321015
0.00325246
0.00336151
0.00359521
0.00398966
0.00455375
0.00527669
0.00608653
0.00681678
0.00728275
0.00764401
0.00751797
0.00665449
0.0060735
0.00557904
0.0050989
0.00462898
0.00412243
0.0036648
0.0032742
0.00293658
0.00263047
0.00234713
0.00207865
0.00181789
0.00155429
0.00122114
0.000929461
0.00118985
0.00121558
0.00116802
0.00205164
0.00186584
0.0141737
0.0475944
0.00928207
0.00348997
0.00290865
0.00282287
0.00276456
0.00269974
0.00266444
0.0027348
0.0029811
0.0034145
0.0040235
0.00479712
0.00565257
0.00645956
0.00706756
0.00740662
0.00732359
0.00678995
0.00621515
0.00563719
0.00507423
0.00455578
0.00409097
0.00369528
0.00336273
0.0030733
0.00280643
0.00255119
0.00229858
0.00204168
0.00177319
0.0014707
0.0011775
0.00111177
0.00111014
0.00172498
0.00514524
0.00266264
0.0179903
0.0606016
0.0143562
0.00381908
0.00271517
0.00252942
0.00241186
0.00229415
0.0022212
0.00231174
0.00263051
0.00313937
0.00380156
0.00462968
0.00552633
0.0063642
0.00699863
0.00732658
0.0072537
0.00681775
0.00621523
0.00555467
0.00491174
0.00434261
0.00387233
0.00350032
0.00320669
0.00296179
0.00274144
0.00252918
0.00231339
0.00208681
0.00184464
0.00158245
0.00132694
0.00115866
0.00109079
0.00157042
0.00634944
0.00371332
0.0216389
0.0704785
0.0214309
0.00510041
0.00274238
0.00237166
0.00221007
0.00208194
0.00202639
0.00221968
0.00265008
0.00323096
0.00393639
0.00477245
0.00569581
0.00656987
0.00722041
0.00751166
0.00738295
0.00689546
0.00619766
0.00542646
0.00469111
0.00406418
0.00357428
0.00321245
0.00294777
0.00274122
0.00256462
0.00239631
0.00222237
0.00203527
0.00183168
0.00161277
0.00139742
0.00122753
0.00115098
0.00214389
0.0146305
0.00644361
0.0228318
0.0694972
0.0325278
0.0110489
0.00406375
0.0025864
0.00223516
0.00210289
0.00218999
0.00251283
0.00300103
0.00360213
0.00433129
0.00520962
0.00618058
0.00708255
0.00771279
0.00791986
0.00766246
0.007024
0.00616398
0.00524739
0.00440666
0.00372188
0.00321637
0.00286883
0.00263572
0.00246937
0.00233683
0.00221203
0.00207995
0.00193339
0.00177018
0.0015932
0.0014168
0.00127986
0.00131538
0.00408184
0.0297087
0.00813502
0.0219178
0.0516424
0.0336411
0.0174255
0.00857992
0.00475456
0.00325908
0.00272938
0.00285298
0.00321138
0.00367297
0.00424605
0.00499304
0.00593369
0.00696787
0.00788111
0.00843638
0.00847992
0.00800054
0.00712109
0.00603874
0.00495184
0.00400998
0.00328989
0.00279751
0.00248852
0.0023023
0.00218453
0.00209683
0.00201225
0.0019172
0.00180608
0.00167809
0.00153715
0.00139585
0.00130033
0.00160241
0.00807971
0.0270984
0.00859624
0.0192342
0.0394442
0.0302384
0.0195614
0.0121763
0.00793362
0.00571358
0.00466709
0.00436103
0.00439924
0.00465186
0.00514312
0.00593005
0.00697313
0.00807959
0.00895651
0.00933784
0.00909276
0.00826957
0.00705625
0.005707
0.00445618
0.00345967
0.00276771
0.00234785
0.00211468
0.00199011
0.00192336
0.00187398
0.00182051
0.00175297
0.0016678
0.00156592
0.00145374
0.00134858
0.00133958
0.00207908
0.00842246
0.0257319
0.00870042
0.0159512
0.0315914
0.0266524
0.0195371
0.0139728
0.0102806
0.00802392
0.00674778
0.00604659
0.00572916
0.00578032
0.00626908
0.00720007
0.00840532
0.0095549
0.0102754
0.0103077
0.00959197
0.00828226
0.00665858
0.0050486
0.00371567
0.00279084
0.00223293
0.00195364
0.00181397
0.00174538
0.00171212
0.0016851
0.00164977
0.00159884
0.00152975
0.00144483
0.00135642
0.00130322
0.00155677
0.00332799
0.00931309
0.0227902
0.0083946
0.0132673
0.0256733
0.023352
0.0186893
0.0145822
0.011586
0.00954104
0.00820743
0.00729821
0.00683814
0.00695378
0.0077099
0.00896274
0.0103469
0.0113924
0.0117012
0.011109
0.00969618
0.00778277
0.00575291
0.00402276
0.00283189
0.00219262
0.00186077
0.00169669
0.00161547
0.0015755
0.0015547
0.00153431
0.00150454
0.00145998
0.00139914
0.00132779
0.00127239
0.00135769
0.00217618
0.00484336
0.0102453
0.0181938
0.00780795
0.0133464
0.0224202
0.0220583
0.01776
0.0143919
0.011893
0.0100826
0.00876816
0.00791753
0.00777187
0.00846468
0.00985089
0.0115015
0.0128502
0.0133937
0.0128492
0.0112898
0.00898795
0.00651606
0.00430508
0.00296042
0.00222361
0.00185398
0.00166605
0.00156592
0.00150909
0.00147488
0.00145137
0.00142639
0.00139338
0.00134906
0.00129419
0.00123967
0.00123068
0.00145124
0.00252103
0.00537687
0.0103179
0.0162225
0.00736468
0.0108736
0.0117644
0.0129243
0.0125539
0.0113763
0.0100771
0.00894963
0.00820605
0.00830361
0.00941013
0.0112742
0.0133315
0.0149215
0.0155139
0.0148454
0.0129033
0.0101756
0.00702894
0.00464445
0.00314151
0.00235372
0.00196482
0.00176383
0.00164407
0.00156201
0.00150096
0.00145405
0.00141684
0.0013809
0.00134275
0.00130334
0.00126883
0.00125571
0.00131189
0.00158984
0.00253515
0.0049828
0.00948498
0.0166404
0.00803487
0.00354486
0.00482718
0.00600346
0.00661278
0.0072936
0.00880448
0.0113119
0.0141253
0.0165249
0.017954
0.0180587
0.0167615
0.0142623
0.0106509
0.00735436
0.00485431
0.00334916
0.00258036
0.00221724
0.00202852
0.00190618
0.00180845
0.00172182
0.00164423
0.00157853
0.0015294
0.00149627
0.00148261
0.00149686
0.00154741
0.00164305
0.00181133
0.00214945
0.00292862
0.0048237
0.00992303
0.0149428
0.0088346
0.00444575
0.00630079
0.00812545
0.0110447
0.0147195
0.0181695
0.0203891
0.0214343
0.0213507
0.0201348
0.0176115
0.0141588
0.010516
0.00723459
0.00491509
0.00357519
0.00292656
0.00262769
0.00247209
0.00237034
0.00228948
0.00221708
0.00214954
0.00208938
0.0020444
0.00202661
0.00204638
0.00211658
0.00224724
0.00244174
0.00270143
0.00304405
0.00354043
0.00438217
0.0061005
0.0114871
0.0148058
0.00918845
0.0150719
0.0244232
0.0180938
0.0144132
0.0170461
0.0207457
0.0228718
0.0235609
0.0230883
0.0217186
0.0196981
0.017062
0.0139081
0.0106144
0.00768343
0.0055223
0.00427285
0.00366842
0.00338464
0.00323785
0.00315652
0.00311226
0.00308786
0.003069
0.00304646
0.00302128
0.00300723
0.00302539
0.00309531
0.00323275
0.00344761
0.00374669
0.00413945
0.00465423
0.00536919
0.00646819
0.00840046
0.0130627
0.0174528
0.00884393
0.0138086
0.0170472
0.0178872
0.0207953
0.0217415
0.0221641
0.0211672
0.0193517
0.0172286
0.0150504
0.0129201
0.0108889
0.00901241
0.00739315
0.00613369
0.00522871
0.00462582
0.00424702
0.00402107
0.00391075
0.00389566
0.00395689
0.00407102
0.00421047
0.00434823
0.00446533
0.00455849
0.00464583
0.00476453
0.00493961
0.00519216
0.00554457
0.00602575
0.00668752
0.00762207
0.00894963
0.0108284
0.0144056
0.0204119
0.00858186
0.0121404
0.00891074
0.00882479
0.00934727
0.00979241
0.00922258
0.00816123
0.00700868
0.00594912
0.00503005
0.00424354
0.00357757
0.00303678
0.00263698
0.00238558
0.00227186
0.00223798
0.00225292
0.00230355
0.00238064
0.00247544
0.00257954
0.00268601
0.00279041
0.00289136
0.00299065
0.00309283
0.00320384
0.00332992
0.00347689
0.00364914
0.00385234
0.00409962
0.00441709
0.00485159
0.00546878
0.00632654
0.00743057
0.00869453
0.00765911
)
;

boundaryField
{
    floor
    {
        type            kqRWallFunction;
        value           nonuniform List<scalar> 
36
(
0.00358638
0.000793078
0.00162465
0.0016511
0.00157219
0.00144451
0.00128241
0.00113042
0.000998812
0.000887102
0.000792569
0.000712839
0.000644838
0.000585867
0.000533379
0.000484663
0.000436219
0.000397939
0.000326077
0.000326077
0.000523943
0.000677872
0.00082132
0.00116802
0.00205164
0.00186584
0.00358638
0.00429853
0.00390746
0.00358011
0.000793078
0.00358011
0.00253547
0.00538537
0.00403729
0.00534322
)
;
    }
    ceiling
    {
        type            kqRWallFunction;
        value           nonuniform List<scalar> 
43
(
0.0121404
0.00891074
0.00882479
0.00934727
0.00979241
0.00922258
0.00816123
0.00700868
0.00594912
0.00503005
0.00424354
0.00357757
0.00303678
0.00263698
0.00238558
0.00227186
0.00223798
0.00225292
0.00230355
0.00238064
0.00247544
0.00257954
0.00268601
0.00279041
0.00289136
0.00299065
0.00309283
0.00320384
0.00332992
0.00347689
0.00364914
0.00385234
0.00409962
0.00441709
0.00485159
0.00546878
0.00632654
0.00743057
0.00869453
0.00765911
0.0108736
0.0117644
0.00444575
)
;
    }
    sWall
    {
        type            kqRWallFunction;
        value           nonuniform List<scalar> 9(0.0219178 0.0192342 0.0159512 0.0132673 0.0133464 0.0108736 0.0150719 0.0138086 0.0121404);
    }
    nWall
    {
        type            kqRWallFunction;
        value           nonuniform List<scalar> 
14
(
0.00186584
0.00266264
0.00371332
0.00859624
0.00870042
0.0083946
0.00780795
0.00736468
0.00803487
0.0088346
0.00918845
0.00884393
0.00858186
0.00765911
)
;
    }
    sideWalls
    {
        type            empty;
    }
    glass1
    {
        type            kqRWallFunction;
        value           nonuniform List<scalar> 9(0.00158588 0.00340687 0.00549055 0.00797311 0.0108756 0.0141737 0.0179903 0.0216389 0.0228318);
    }
    glass2
    {
        type            kqRWallFunction;
        value           nonuniform List<scalar> 2(0.00644361 0.00813502);
    }
    sun
    {
        type            kqRWallFunction;
        value           nonuniform List<scalar> 
14
(
0.00158588
0.00180108
0.00178799
0.0019466
0.0020979
0.00224024
0.00237698
0.00251264
0.00265302
0.00280639
0.00295662
0.0031029
0.00325039
0.00341277
)
;
    }
    Table_master
    {
        type            kqRWallFunction;
        value           nonuniform List<scalar> 9(0.0026634 0.0020138 0.0015748 0.00126893 0.0010491 0.000886866 0.000764594 0.000671803 0.000603612);
    }
    Table_slave
    {
        type            kqRWallFunction;
        value           nonuniform List<scalar> 9(0.00345485 0.00285784 0.00243472 0.00210886 0.00184964 0.00163133 0.00143802 0.00125807 0.00107719);
    }
    inlet
    {
        type            turbulentIntensityKineticEnergyInlet;
        intensity       0.05;
        value           uniform 0.0009375;
    }
    outlet
    {
        type            zeroGradient;
    }
}


// ************************************************************************* //
