/*--------------------------------*- C++ -*----------------------------------*\
  =========                 |
  \\      /  F ield         | OpenFOAM: The Open Source CFD Toolbox
   \\    /   O peration     | Website:  https://openfoam.org
    \\  /    A nd           | Version:  6
     \\/     M anipulation  |
\*---------------------------------------------------------------------------*/
FoamFile
{
    version     2.0;
    format      ascii;
    class       volScalarField;
    location    "1540";
    object      k;
}
// * * * * * * * * * * * * * * * * * * * * * * * * * * * * * * * * * * * * * //

dimensions      [0 2 -2 0 0 0 0];

internalField   nonuniform List<scalar> 
458
(
0.00226783
0.00268612
0.00280892
0.00308411
0.00334896
0.00360977
0.00388046
0.00416529
0.00440561
0.00456002
0.00457755
0.00441279
0.00402205
0.00325462
0.00187341
0.000457615
0.000628877
0.000808346
0.000878848
0.000851563
0.000745725
0.00063681
0.000546639
0.000474092
0.000415269
0.000367091
0.00032737
0.000294049
0.000265256
0.000239316
0.000214612
0.000200569
0.000169413
0.00412309
0.00755208
0.00415053
0.00437451
0.0047164
0.00513571
0.00563281
0.00619714
0.00680113
0.00731353
0.00758885
0.00753146
0.00712409
0.00635491
0.00513864
0.00326421
0.00224673
0.00149561
0.000450286
0.000973131
0.00130327
0.00145837
0.00147274
0.00125939
0.00102437
0.00083404
0.000688765
0.000577344
0.000490679
0.000421524
0.000364705
0.000317442
0.000283512
0.000264385
0.000493871
0.000292755
0.00609516
0.013649
0.00491175
0.00472539
0.00494204
0.00528653
0.00575138
0.00634146
0.00699452
0.00755117
0.00789314
0.00795039
0.00769391
0.00706098
0.00603739
0.00488854
0.00391872
0.00208635
0.00106816
0.00139968
0.00160358
0.0017304
0.00172285
0.00134717
0.00103257
0.00080264
0.000637611
0.000518267
0.000430616
0.000365344
0.000316481
0.000280899
0.000262144
0.000265445
0.000780336
0.000408862
0.00835897
0.0222357
0.00592729
0.0047074
0.00474699
0.00501703
0.00547425
0.00616864
0.00689315
0.0074637
0.00783448
0.0079543
0.00774894
0.00714625
0.00628737
0.00543588
0.0046325
0.00350034
0.00276905
0.00250701
0.00237418
0.00233825
0.00228969
0.00215198
0.00170951
0.00143645
0.00126406
0.00114389
0.00104695
0.000954833
0.00087129
0.000787168
0.000694245
0.00053022
0.000422768
0.0011325
0.000542378
0.0110412
0.0339561
0.00842398
0.00475024
0.00448341
0.00470865
0.00530013
0.00635573
0.00718557
0.00774008
0.00809569
0.00819787
0.00790102
0.00718304
0.00621642
0.00530949
0.0045799
0.00397857
0.00379469
0.00347959
0.00325263
0.00307079
0.00285937
0.00259044
0.00230283
0.00210676
0.00198671
0.00189201
0.00178997
0.00166121
0.00149197
0.0012992
0.00109392
0.000865714
0.000664778
0.000922204
0.00106382
0.00096943
0.00108637
0.00128348
0.0143256
0.0466871
0.0149496
0.00592355
0.00474295
0.0047838
0.00570817
0.00726764
0.00803247
0.00847487
0.00873922
0.00874827
0.00832082
0.00737926
0.00612493
0.0049664
0.00418383
0.00384177
0.00381413
0.00382318
0.00373201
0.0035089
0.0031894
0.00283502
0.00254796
0.0023955
0.00232186
0.00226325
0.00218514
0.00206525
0.00187845
0.00164892
0.00140038
0.00114681
0.000935616
0.000900713
0.00103003
0.00105444
0.00165139
0.00138073
0.0179759
0.0550456
0.0270763
0.0123606
0.00830911
0.00741319
0.00850605
0.00921055
0.00948661
0.00964624
0.00973035
0.00958417
0.00894768
0.00770973
0.00611046
0.00469906
0.00388707
0.00373605
0.00389838
0.00398284
0.00385372
0.00355056
0.00317116
0.00281208
0.0025676
0.0024687
0.00245181
0.00245712
0.00245502
0.00242459
0.00233611
0.00214731
0.00191071
0.001659
0.00145725
0.00136461
0.00145098
0.00168151
0.00223393
0.00194885
0.0189406
0.0568441
0.0383012
0.0271716
0.0197429
0.0158821
0.0137264
0.0122893
0.011537
0.0112129
0.0110103
0.0106105
0.00964699
0.00799515
0.00597446
0.00439259
0.00367743
0.00365539
0.00377989
0.00375028
0.00351695
0.00317023
0.00282025
0.00255069
0.00240819
0.00238383
0.00243142
0.00251753
0.0026303
0.00276719
0.00292548
0.00306701
0.00310931
0.00313894
0.00329208
0.0038691
0.00511955
0.00681584
0.0128317
0.00467704
0.018204
0.026466
0.0243619
0.0217105
0.0188864
0.0164646
0.0146544
0.0135912
0.0130874
0.0127686
0.0123578
0.0115968
0.0100717
0.00776936
0.00515941
0.0038577
0.00340265
0.00330964
0.00325309
0.00309144
0.00282354
0.00252786
0.0022827
0.00213441
0.00208903
0.00212331
0.00220963
0.00233307
0.00249003
0.00268165
0.0029093
0.00317116
0.0034897
0.00390091
0.00444785
0.00509763
0.00569695
0.0060692
0.00624832
0.00408122
0.00718482
0.0110948
0.0135429
0.0147737
0.0154379
0.0157088
0.0153784
0.014453
0.0132138
0.0115865
0.00880989
0.00585878
0.00403619
0.00322547
0.00288137
0.00270029
0.00252799
0.00231817
0.00209091
0.00188812
0.00175205
0.00169312
0.00169786
0.00174769
0.00182977
0.00193924
0.00207749
0.00225113
0.00247287
0.00276576
0.00313122
0.003567
0.0040509
0.00449043
0.00471262
0.00457285
0.0041068
0.00264226
0.00805092
0.0194697
0.0216115
0.0215017
0.0207291
0.0184776
0.0153386
0.0120152
0.00883327
0.00623589
0.00435117
0.00326397
0.00271628
0.00241244
0.00221071
0.00203269
0.00184795
0.00166496
0.00150927
0.00139892
0.00133819
0.00132624
0.00135499
0.00141877
0.00151595
0.00164794
0.00181804
0.00203052
0.00229595
0.00262437
0.0030244
0.00349684
0.00401538
0.00451218
0.00481683
0.00510146
0.00428739
0.00271137
0.00890516
0.00935064
0.00976456
0.0120866
0.0107991
0.00848073
0.00603592
0.00437024
0.00348216
0.00273166
0.00214596
0.00173648
0.00142361
0.00120715
0.00106721
0.000970408
0.000895891
0.000834147
0.000784823
0.00075239
0.000740463
0.000749407
0.000776254
0.000816581
0.000868995
0.000933217
0.00100994
0.00110083
0.00120891
0.00133963
0.00149654
0.00168152
0.00189891
0.00215369
0.00245043
0.00283127
0.00300664
0.00288477
0.00249577
0.00213487
)
;

boundaryField
{
    floor
    {
        type            kqRWallFunction;
        value           nonuniform List<scalar> 
36
(
0.00187341
0.000457615
0.000628877
0.000808346
0.000878848
0.000851563
0.000745725
0.00063681
0.000546639
0.000474092
0.000415269
0.000367091
0.00032737
0.000294049
0.000265256
0.000239316
0.000214612
0.000200569
0.000169413
0.000169413
0.000292755
0.000408862
0.000542378
0.00096943
0.00108637
0.00128348
0.00187341
0.00326421
0.00224673
0.00149561
0.000457615
0.00149561
0.000450286
0.00208635
0.00106816
0.00276905
)
;
    }
    ceiling
    {
        type            kqRWallFunction;
        value           nonuniform List<scalar> 
43
(
0.00890516
0.00935064
0.00976456
0.0120866
0.0107991
0.00848073
0.00603592
0.00437024
0.00348216
0.00273166
0.00214596
0.00173648
0.00142361
0.00120715
0.00106721
0.000970408
0.000895891
0.000834147
0.000784823
0.00075239
0.000740463
0.000749407
0.000776254
0.000816581
0.000868995
0.000933217
0.00100994
0.00110083
0.00120891
0.00133963
0.00149654
0.00168152
0.00189891
0.00215369
0.00245043
0.00283127
0.00300664
0.00288477
0.00249577
0.00213487
0.018204
0.026466
0.00805092
)
;
    }
    sWall
    {
        type            kqRWallFunction;
        value           uniform 0.00890516;
    }
    nWall
    {
        type            kqRWallFunction;
        value           nonuniform List<scalar> 6(0.00128348 0.00138073 0.00194885 0.00264226 0.00271137 0.00213487);
    }
    sideWalls
    {
        type            empty;
    }
    glass1
    {
        type            kqRWallFunction;
        value           nonuniform List<scalar> 9(0.00226783 0.00412309 0.00609516 0.00835897 0.0110412 0.0143256 0.0179759 0.0189406 0.018204);
    }
    glass2
    {
        type            kqRWallFunction;
        value           nonuniform List<scalar> 2(0.00467704 0.00408122);
    }
    sun
    {
        type            kqRWallFunction;
        value           nonuniform List<scalar> 
14
(
0.00226783
0.00268612
0.00280892
0.00308411
0.00334896
0.00360977
0.00388046
0.00416529
0.00440561
0.00456002
0.00457755
0.00441279
0.00402205
0.00325462
)
;
    }
    Table_master
    {
        type            kqRWallFunction;
        value           nonuniform List<scalar> 9(0.00134717 0.00103257 0.00080264 0.000637611 0.000518267 0.000430616 0.000365344 0.000316481 0.000280899);
    }
    Table_slave
    {
        type            kqRWallFunction;
        value           nonuniform List<scalar> 9(0.00170951 0.00143645 0.00126406 0.00114389 0.00104695 0.000954833 0.00087129 0.000787168 0.000694245);
    }
    inlet
    {
        type            turbulentIntensityKineticEnergyInlet;
        intensity       0.05;
        value           uniform 0.000937501;
    }
    outlet
    {
        type            zeroGradient;
    }
}


// ************************************************************************* //
