/*--------------------------------*- C++ -*----------------------------------*\
  =========                 |
  \\      /  F ield         | OpenFOAM: The Open Source CFD Toolbox
   \\    /   O peration     | Website:  https://openfoam.org
    \\  /    A nd           | Version:  6
     \\/     M anipulation  |
\*---------------------------------------------------------------------------*/
FoamFile
{
    version     2.0;
    format      ascii;
    class       volScalarField;
    location    "49400.00000107698";
    object      epsilon;
}
// * * * * * * * * * * * * * * * * * * * * * * * * * * * * * * * * * * * * * //

dimensions      [0 2 -3 0 0 0 0];

internalField   nonuniform List<scalar> 
778
(
0.000253117
0.000306365
0.000303044
0.000344254
0.000385158
0.000425005
0.000464484
0.000504782
0.000547632
0.000595751
0.00064416
0.000692483
0.000742375
0.000798641
0.00086032
8.9456e-05
0.00026245
0.00026881
0.000249716
0.000219885
0.000183918
0.000152224
0.000126451
0.000105857
8.94013e-05
7.62566e-05
6.5608e-05
5.68155e-05
4.9353e-05
4.27479e-05
3.65015e-05
3.1806e-05
2.35942e-05
0.000796975
0.00144323
0.000287035
0.000259657
0.000261767
0.000267745
0.000276646
0.000290081
0.000310339
0.000340543
0.000379739
0.00043082
0.00049915
0.000600287
0.00078535
0.00112888
0.000978345
0.000858082
0.000512199
0.000369503
0.000294126
0.000242731
0.000203873
0.000186679
0.000154536
0.000124897
0.000100627
8.14403e-05
6.64904e-05
5.47944e-05
4.5609e-05
3.86889e-05
3.45003e-05
3.27392e-05
6.57948e-05
4.80732e-05
0.00163056
0.00407918
0.00040744
0.00024299
0.000229171
0.000231084
0.000238301
0.00025057
0.000268472
0.000292733
0.000324838
0.000366866
0.000421198
0.00049485
0.000601194
0.000724421
0.000829497
0.00158364
0.00102836
0.000512514
0.000367775
0.000294268
0.000261995
0.000550959
0.00036214
0.000250358
0.00018105
0.000136092
0.000105781
8.4685e-05
6.97538e-05
5.94123e-05
4.50986e-05
3.79515e-05
0.000108312
7.0779e-05
0.00285337
0.00877078
0.000709947
0.000240779
0.000202536
0.000200069
0.000203236
0.000209857
0.000220667
0.000237573
0.000263244
0.000299954
0.000349114
0.000412192
0.000487847
0.000560056
0.000612264
0.000824249
0.00156484
0.000729156
0.00045988
0.000358334
0.000301919
0.00029179
0.000813979
0.00061237
0.000481482
0.000388048
0.000318696
0.000263947
0.000218444
0.000178749
0.000141614
8.36436e-05
5.4784e-05
0.000149025
9.44339e-05
0.00454573
0.0158283
0.00134648
0.000258389
0.000175779
0.000166833
0.000165834
0.000167802
0.000173958
0.000187456
0.000211685
0.00024833
0.00029768
0.00035914
0.000427544
0.000488915
0.000528335
0.000582331
0.000627369
0.000483166
0.000393507
0.000331059
0.00028231
0.000248616
0.000247805
0.000226724
0.000202865
0.000180982
0.000162603
0.000146447
0.000131787
0.000118207
0.000105059
8.44316e-05
6.40734e-05
0.000105292
0.000138837
0.000160377
0.000379352
0.000328441
0.00676319
0.0248802
0.00255375
0.00031811
0.000155572
0.000137097
0.000132151
0.000130711
0.000134474
0.000148566
0.000176709
0.000218043
0.000270686
0.000333882
0.00040139
0.000462257
0.000502653
0.000521441
0.000504632
0.000438187
0.000373818
0.000315663
0.000264746
0.000223374
0.00019327
0.000169611
0.000150799
0.000135616
0.000123283
0.000112731
0.000103272
9.45123e-05
8.60823e-05
7.59024e-05
6.52517e-05
7.75413e-05
9.96993e-05
0.000214943
0.00109922
0.000558276
0.0096716
0.0336398
0.00458441
0.000465023
0.000150862
0.000116362
0.000107104
0.000103294
0.000107087
0.000127936
0.000166144
0.00021587
0.000273197
0.000339811
0.000408948
0.00047002
0.000509777
0.000520149
0.000494123
0.000437534
0.000371813
0.000307473
0.000250536
0.000204416
0.000169727
0.000144546
0.000126328
0.000112748
0.000102292
9.37142e-05
8.62097e-05
7.93255e-05
7.27901e-05
6.61423e-05
6.02651e-05
6.36008e-05
7.67862e-05
0.000179729
0.00166289
0.000923937
0.0127584
0.0404096
0.00749132
0.000871323
0.000194264
0.000115376
9.73859e-05
9.14569e-05
9.86341e-05
0.000137714
0.000189296
0.000246243
0.000306954
0.000373621
0.000444479
0.000507716
0.000547059
0.000550664
0.000515508
0.000451445
0.000375461
0.000300934
0.000236457
0.000185941
0.000149302
0.000123987
0.000106733
9.46033e-05
8.57712e-05
7.88297e-05
7.29037e-05
6.75201e-05
6.24562e-05
5.76541e-05
5.38844e-05
5.54272e-05
7.06522e-05
0.000380647
0.00587142
0.00215032
0.0138268
0.0414602
0.0139348
0.00316387
0.000629862
0.000207934
0.000132632
0.000115958
0.000142387
0.000192851
0.000249235
0.000306376
0.000367294
0.000436563
0.000510982
0.000575598
0.000610719
0.000602931
0.000551936
0.000470801
0.000378395
0.000290869
0.000218239
0.000164023
0.000126798
0.000102648
8.73408e-05
7.74065e-05
7.07284e-05
6.57247e-05
6.15053e-05
5.76386e-05
5.39667e-05
5.05655e-05
4.81721e-05
5.12188e-05
9.83662e-05
0.00119495
0.0158486
0.00310559
0.0130038
0.0283705
0.0144164
0.00572625
0.0021036
0.000834107
0.000413398
0.000276683
0.000278795
0.000314386
0.000355929
0.000401641
0.000458637
0.000531094
0.000610265
0.000674184
0.000698673
0.000670386
0.000593486
0.000486415
0.000372494
0.000270656
0.000191189
0.000135837
0.000100767
7.99696e-05
6.80586e-05
6.12819e-05
5.72016e-05
5.42522e-05
5.16878e-05
4.92072e-05
4.67594e-05
4.4556e-05
4.36822e-05
5.20853e-05
0.000197853
0.00358435
0.0120188
0.00327886
0.0106889
0.0193575
0.0120389
0.00629971
0.00317364
0.00167395
0.000986103
0.000678477
0.000559543
0.00051694
0.000510144
0.000531409
0.000584024
0.000663503
0.000748403
0.000805775
0.000807469
0.000743754
0.000627469
0.000485566
0.000347326
0.000233564
0.000152651
0.000101964
7.37122e-05
5.89269e-05
5.14657e-05
4.80431e-05
4.62507e-05
4.49347e-05
4.36302e-05
4.22011e-05
4.07482e-05
3.98123e-05
4.15273e-05
5.86242e-05
0.00023881
0.00272818
0.0109083
0.00340944
0.00807202
0.0137703
0.00969218
0.00593282
0.00356893
0.00222673
0.00149009
0.00109224
0.000868644
0.000743063
0.000685644
0.000690373
0.000751588
0.000846559
0.000934238
0.000969768
0.000926277
0.000804944
0.000633948
0.000451424
0.000292779
0.00017747
0.000107217
6.95909e-05
5.2571e-05
4.44345e-05
4.06251e-05
3.92372e-05
3.86543e-05
3.82034e-05
3.76179e-05
3.68831e-05
3.63711e-05
3.75217e-05
4.54621e-05
8.50823e-05
0.000325405
0.00229422
0.00860035
0.00401613
0.00612401
0.0101688
0.00779182
0.0053126
0.00357005
0.00246894
0.00178771
0.00136793
0.00109264
0.00092581
0.000859366
0.000887754
0.000985243
0.00110096
0.00117284
0.00115193
0.00102679
0.000820604
0.00058501
0.000367886
0.00020836
0.000114613
7.21161e-05
5.21882e-05
4.27292e-05
3.80117e-05
3.57498e-05
3.49639e-05
3.46762e-05
3.44648e-05
3.41964e-05
3.40896e-05
3.53204e-05
4.23398e-05
7.27229e-05
0.000192036
0.000601799
0.00233687
0.00759495
0.0038592
0.00618323
0.00781508
0.00680641
0.00474044
0.00336617
0.00246272
0.00186594
0.00146241
0.00119455
0.00106466
0.00107128
0.00118305
0.00133423
0.00144333
0.00144263
0.00130182
0.00104999
0.000740272
0.000455873
0.000237898
0.000131022
8.16463e-05
5.95891e-05
4.86441e-05
4.25253e-05
3.88668e-05
3.67751e-05
3.58115e-05
3.53969e-05
3.51978e-05
3.5226e-05
3.61769e-05
4.11225e-05
6.19506e-05
0.000140687
0.000392648
0.00107408
0.00278411
0.00622482
0.00315517
0.00454619
0.00511613
0.00418628
0.0033625
0.00264029
0.00207057
0.00164939
0.00136201
0.00124474
0.00130094
0.00148076
0.00169249
0.00183225
0.0018236
0.00164081
0.00130171
0.000907061
0.000518472
0.000278075
0.000154857
0.000101501
7.80762e-05
6.60287e-05
5.83316e-05
5.28142e-05
4.88855e-05
4.63726e-05
4.50902e-05
4.48484e-05
4.5221e-05
4.63161e-05
4.92498e-05
5.85122e-05
8.96223e-05
0.000190498
0.000485482
0.00123527
0.00286282
0.00538076
0.00272985
0.00139826
0.0014286
0.0014312
0.00135284
0.00131116
0.00142216
0.00170691
0.00204471
0.00231196
0.00241437
0.00230026
0.00198482
0.00153239
0.000979373
0.000566695
0.000311469
0.000186931
0.00013419
0.000111787
9.97795e-05
9.127e-05
8.43484e-05
7.87985e-05
7.48937e-05
7.29155e-05
7.29288e-05
7.49814e-05
7.88125e-05
8.41782e-05
9.18855e-05
0.000105727
0.000138242
0.000225356
0.000460236
0.0010502
0.00237398
0.00530268
0.00303246
0.00118794
0.0017148
0.00195259
0.00230824
0.00275461
0.00316048
0.00334244
0.00331215
0.00309275
0.00270391
0.00213433
0.00151441
0.000977876
0.000574437
0.000341518
0.000231666
0.000187048
0.000168121
0.000157617
0.00014974
0.000143051
0.000137599
0.000134022
0.000133149
0.000135717
0.000142119
0.000152177
0.000165813
0.000182772
0.000202798
0.000228251
0.000267889
0.000345498
0.000520035
0.000951785
0.00233735
0.0043655
0.00367578
0.00741429
0.00808964
0.00481676
0.00340465
0.00373537
0.00414303
0.004153
0.00394057
0.00358514
0.0031319
0.00262805
0.00208665
0.00153598
0.0010467
0.000679917
0.000456925
0.000350876
0.000307754
0.000290511
0.000282383
0.000277081
0.000272167
0.000266941
0.000261909
0.000258496
0.000258559
0.000263816
0.000275507
0.000294476
0.000321438
0.000357364
0.000404275
0.000465817
0.000553124
0.000694442
0.00093852
0.00144014
0.00325171
0.00446138
0.00407027
0.00650066
0.0051358
0.00435985
0.00461696
0.00454021
0.00427438
0.0036943
0.00304732
0.00246079
0.00196757
0.00156473
0.00124189
0.000988286
0.000797129
0.000658913
0.000566063
0.000510666
0.00048161
0.000470137
0.000470187
0.000477192
0.000487595
0.000498935
0.000510105
0.000521471
0.000534749
0.000552783
0.000579387
0.000619386
0.000678797
0.000765247
0.000888611
0.00106157
0.00129873
0.00161953
0.00206919
0.0027336
0.00413107
0.00587108
0.00441899
0.00535938
0.00337366
0.00332571
0.00362881
0.00389563
0.0035701
0.00298212
0.00238146
0.00186563
0.00144691
0.00111104
0.000845898
0.000648283
0.00051808
0.000449875
0.000422437
0.000418205
0.000427449
0.000444362
0.00046536
0.000488066
0.000510962
0.000533338
0.000555316
0.000577842
0.000602562
0.000631683
0.000668041
0.000715641
0.000780736
0.000873094
0.00100663
0.00119811
0.00146363
0.00181541
0.00226363
0.00282355
0.00351336
0.00430723
0.00354795
)
;

boundaryField
{
    floor
    {
        Cmu             0.09;
        kappa           0.41;
        E               9.8;
        type            epsilonWallFunction;
        value           nonuniform List<scalar> 
36
(
0.00086032
8.9456e-05
0.00026245
0.00026881
0.000249716
0.000219885
0.000183918
0.000152224
0.000126451
0.000105857
8.94013e-05
7.62566e-05
6.5608e-05
5.68155e-05
4.9353e-05
4.27479e-05
3.65015e-05
3.1806e-05
2.35942e-05
2.35942e-05
4.80732e-05
7.0779e-05
9.44339e-05
0.000160377
0.000379352
0.000328441
0.00086032
0.00112888
0.000978345
0.000858082
8.9456e-05
0.000858082
0.000512199
0.00158364
0.00102836
0.00156484
)
;
    }
    ceiling
    {
        Cmu             0.09;
        kappa           0.41;
        E               9.8;
        type            epsilonWallFunction;
        value           nonuniform List<scalar> 
43
(
0.00535938
0.00337366
0.00332571
0.00362881
0.00389563
0.0035701
0.00298212
0.00238146
0.00186563
0.00144691
0.00111104
0.000845898
0.000648283
0.00051808
0.000449875
0.000422437
0.000418205
0.000427449
0.000444362
0.00046536
0.000488066
0.000510962
0.000533338
0.000555316
0.000577842
0.000602562
0.000631683
0.000668041
0.000715641
0.000780736
0.000873094
0.00100663
0.00119811
0.00146363
0.00181541
0.00226363
0.00282355
0.00351336
0.00430723
0.00354795
0.00454619
0.00511613
0.00118794
)
;
    }
    sWall
    {
        Cmu             0.09;
        kappa           0.41;
        E               9.8;
        type            epsilonWallFunction;
        value           nonuniform List<scalar> 9(0.0130038 0.0106889 0.00807202 0.00612401 0.00618323 0.00454619 0.00741429 0.00650066 0.00535938);
    }
    nWall
    {
        Cmu             0.09;
        kappa           0.41;
        E               9.8;
        type            epsilonWallFunction;
        value           nonuniform List<scalar> 
14
(
0.000328441
0.000558276
0.000923937
0.00327886
0.00340944
0.00401613
0.0038592
0.00315517
0.00272985
0.00303246
0.00367578
0.00407027
0.00441899
0.00354795
)
;
    }
    sideWalls
    {
        type            empty;
    }
    glass1
    {
        Cmu             0.09;
        kappa           0.41;
        E               9.8;
        type            epsilonWallFunction;
        value           nonuniform List<scalar> 9(0.000253117 0.000796975 0.00163056 0.00285337 0.00454573 0.00676319 0.0096716 0.0127584 0.0138268);
    }
    glass2
    {
        Cmu             0.09;
        kappa           0.41;
        E               9.8;
        type            epsilonWallFunction;
        value           nonuniform List<scalar> 2(0.00215032 0.00310559);
    }
    sun
    {
        Cmu             0.09;
        kappa           0.41;
        E               9.8;
        type            epsilonWallFunction;
        value           nonuniform List<scalar> 
14
(
0.000253117
0.000306365
0.000303044
0.000344254
0.000385158
0.000425005
0.000464484
0.000504782
0.000547632
0.000595751
0.00064416
0.000692483
0.000742375
0.000798641
)
;
    }
    Table_master
    {
        Cmu             0.09;
        kappa           0.41;
        E               9.8;
        type            epsilonWallFunction;
        value           nonuniform List<scalar> 9(0.000550959 0.00036214 0.000250358 0.00018105 0.000136092 0.000105781 8.4685e-05 6.97538e-05 5.94123e-05);
    }
    Table_slave
    {
        Cmu             0.09;
        kappa           0.41;
        E               9.8;
        type            epsilonWallFunction;
        value           nonuniform List<scalar> 9(0.000813979 0.00061237 0.000481482 0.000388048 0.000318696 0.000263947 0.000218444 0.000178749 0.000141614);
    }
    inlet
    {
        type            turbulentMixingLengthDissipationRateInlet;
        mixingLength    0.01;
        phi             phi;
        k               k;
        value           uniform 0.000471671;
    }
    outlet
    {
        type            zeroGradient;
    }
}


// ************************************************************************* //
