/*--------------------------------*- C++ -*----------------------------------*\
  =========                 |
  \\      /  F ield         | OpenFOAM: The Open Source CFD Toolbox
   \\    /   O peration     | Website:  https://openfoam.org
    \\  /    A nd           | Version:  6
     \\/     M anipulation  |
\*---------------------------------------------------------------------------*/
FoamFile
{
    version     2.0;
    format      ascii;
    class       surfaceScalarField;
    location    "49400.00000107698";
    object      phi;
}
// * * * * * * * * * * * * * * * * * * * * * * * * * * * * * * * * * * * * * //

dimensions      [1 0 -1 0 0 0 0];

internalField   nonuniform List<scalar> 
1482
(
-0.00279972
0.00286376
-0.00348389
0.000684163
-0.00414457
0.000660686
-0.00475864
0.000614066
-0.00527995
0.000521308
-0.00569172
0.000411777
-0.00598273
0.00029101
-0.00613993
0.000157192
-0.006146
6.06851e-06
-0.00597499
-0.000171001
-0.00559703
-0.000377963
-0.00498114
-0.000615895
-0.00405718
-0.000923961
-0.00257895
-0.00147822
-0.00257603
-6.33248e-05
6.81795e-05
0.000780791
-0.000844116
0.00143348
-0.000652689
0.0018329
-0.000399421
0.00205448
-0.000221581
0.00215886
-0.000104378
0.00220635
-4.74916e-05
0.00222937
-2.30157e-05
0.00223925
-9.88074e-06
0.00224017
-9.23974e-07
0.00223307
7.1037e-06
0.00221399
1.90753e-05
0.00216967
4.43255e-05
0.00206689
0.000102782
0.00185021
0.00021668
0.00149278
0.000357427
0.00102153
0.000471251
0.00102797
-0.00204032
0.0050744
-0.00290837
0.00155222
-0.0036942
0.00144651
-0.00434523
0.00126509
-0.00488244
0.00105852
-0.00531109
0.000840428
-0.00562938
0.000609301
-0.00583051
0.000358322
-0.00590382
7.93818e-05
-0.00584153
-0.000233292
-0.00563786
-0.000581631
-0.00528153
-0.00097223
-0.00477137
-0.00143412
-0.00428536
-0.00196423
-0.00470086
-0.00216053
-0.00311517
-0.00158024
-0.00163279
-0.00147669
-0.00161794
0.00131853
-0.00124014
0.00166317
-0.00118875
0.00191479
-0.000904313
0.00210572
-0.000590354
0.00221281
-0.000328671
0.00222157
-0.000113135
0.00222352
-4.944e-05
0.00222516
-2.46601e-05
0.00222618
-1.08976e-05
0.00222624
-9.79842e-07
0.00222489
8.44848e-06
0.00222068
2.32827e-05
0.00220803
5.6982e-05
0.00214605
0.000164755
0.00189623
0.000466499
0.00146662
0.000787043
0.000903297
0.00103457
0.00194815
-0.00148818
0.00682051
-0.00235897
0.00242301
-0.00312891
0.00221645
-0.0037131
0.00184928
-0.0041837
0.00152912
-0.00455504
0.00121177
-0.0048289
0.000883157
-0.00500203
0.000531458
-0.00506806
0.000145408
-0.00501793
-0.000283418
-0.00484095
-0.000758617
-0.0045297
-0.00128347
-0.00411502
-0.0018488
-0.00371756
-0.00236169
-0.00329727
-0.00258082
-0.00236634
-0.00251117
-0.00127309
-0.00256994
-0.00287819
0.00115061
-0.00237629
0.00165431
-0.00169245
0.00195268
-0.00120269
0.00214534
-0.000783012
0.00217517
-0.000358503
0.00206219
0.0020129
0.0019884
0.00197765
0.00197683
0.00198543
0.00200887
0.002066
0.00223091
0.00187198
0.000825428
0.0014235
0.00123553
0.000804243
0.00165383
0.00277842
-0.00110597
0.00825769
-0.00192776
0.00324479
-0.0025697
0.00285839
-0.00302996
0.00230955
-0.00339743
0.00189659
-0.00368612
0.00150046
-0.00389902
0.00109606
-0.00403428
0.000666711
-0.00408436
0.00019549
-0.00403609
-0.000331682
-0.00387723
-0.000917479
-0.00360367
-0.00155703
-0.00323803
-0.00221444
-0.00281612
-0.0027836
-0.0022768
-0.00312014
-0.00155729
-0.00323068
-0.000869091
-0.00325814
-0.000688502
-0.00305878
0.00144758
-0.00212063
0.00137787
-0.00230658
0.00169278
-0.00200736
0.00200502
-0.00151493
0.00227113
-0.00104912
0.00254714
-0.000634506
0.00286081
-0.000313828
0.00302807
-0.000167417
0.00309327
-6.53523e-05
0.00307687
1.62478e-05
0.00298755
8.91626e-05
0.00282616
0.000161243
0.00258467
0.000241332
0.00224
0.000344514
0.00173478
0.000505067
0.00159767
0.00096254
0.00126929
0.00156391
0.000742163
0.00218096
0.00355489
-0.000803672
0.00945455
-0.00157968
0.0040208
-0.00204817
0.00332688
-0.00236376
0.00262514
-0.00260805
0.00214088
-0.00279352
0.00168593
-0.00292516
0.0012277
-0.00300367
0.000745219
-0.00302247
0.000214289
-0.00296492
-0.000389226
-0.00281779
-0.00106461
-0.00257411
-0.00180071
-0.00224046
-0.00254809
-0.00182401
-0.00320006
-0.00131869
-0.00362546
-0.000742186
-0.00380718
-0.00021089
-0.00378943
0.000266461
-0.00353613
0.00112705
-0.00298122
0.00149194
-0.00267148
0.00174996
-0.00226537
0.00200185
-0.00176682
0.00223142
-0.00127869
0.00244555
-0.000848634
0.00264675
-0.000515022
0.00275728
-0.000277949
0.00279428
-0.000102348
0.00276937
4.11515e-05
0.00268886
0.000169675
0.00255509
0.000295015
0.0023667
0.000429722
0.00212115
0.000590064
0.00182643
0.000799782
0.00161988
0.00116909
0.00147761
0.00170617
0.00129755
0.00236102
0.00228662
0.00256582
0.00133378
0.00098775
0.00191584
-0.000553584
0.00203427
-0.000575752
0.0104767
-0.00132451
0.00476956
-0.00158388
0.00358626
-0.00174965
0.0027909
-0.00186357
0.0022548
-0.00193506
0.00175742
-0.00197057
0.00126321
-0.00197436
0.000749013
-0.00194323
0.000183161
-0.00185536
-0.000477094
-0.0017009
-0.00121908
-0.00146983
-0.00203178
-0.00116507
-0.00285285
-0.000792534
-0.0035726
-0.000372504
-0.0040455
6.79618e-05
-0.00424765
0.000473202
-0.00419468
0.000847438
-0.00391037
0.00129782
-0.00343161
0.00159571
-0.00296937
0.00179808
-0.00246774
0.00196885
-0.00193759
0.00212013
-0.00142997
0.00225454
-0.000983045
0.00235965
-0.000620127
0.00241844
-0.000336742
0.00243052
-0.00011443
0.00240103
7.06503e-05
0.00233461
0.000236092
0.00223489
0.000394733
0.00210568
0.000558935
0.00195374
0.000742005
0.00179328
0.000960233
0.00170058
0.0012618
0.0017552
0.00165155
0.00196422
0.002152
0.0022075
0.00232254
0.00172776
0.00146749
0.000800971
0.000373208
0.00293253
-0.000543378
0.0115123
-0.0012434
0.00546958
-0.00119137
0.00353422
-0.00119954
0.00279907
-0.00119185
0.0022471
-0.00115845
0.00172403
-0.00110149
0.00120625
-0.00102667
0.000674193
-0.000928581
8.5074e-05
-0.00077992
-0.000625755
-0.000590796
-0.0014082
-0.000350533
-0.00227204
-6.62445e-05
-0.00313714
0.000239246
-0.00387809
0.000549834
-0.00435609
0.000845404
-0.00454323
0.0011085
-0.00445778
0.00134163
-0.0041435
0.00157275
-0.00366273
0.00173146
-0.00312808
0.00183035
-0.00256662
0.00189952
-0.00200677
0.00195477
-0.00148522
0.0020013
-0.00102957
0.00203387
-0.000652693
0.00204676
-0.00034963
0.00203651
-0.000104183
0.00200377
0.000103387
0.00195145
0.000288417
0.00188305
0.000463132
0.0018034
0.000638583
0.00172054
0.000824869
0.0016489
0.00103187
0.00163131
0.0012794
0.00171271
0.00157015
0.00191651
0.0019482
0.00216856
0.00207049
0.0021967
0.00143935
0.00163005
0.000939851
0.00466494
-0.000483583
0.0125314
-0.0010513
0.00603731
-0.000696831
0.00317975
-0.000635784
0.00273803
-0.000567358
0.00217867
-0.000462783
0.00161945
-0.000334023
0.00107749
-0.000183226
0.000523396
5.57865e-06
-0.00010373
0.000223348
-0.000843524
0.000462937
-0.00164779
0.000720946
-0.00253005
0.000978621
-0.00339482
0.00120822
-0.0041077
0.00140857
-0.00455644
0.00157057
-0.00470523
0.00168878
-0.004576
0.00176792
-0.00422264
0.00182044
-0.00371525
0.00182963
-0.00313727
0.0018039
-0.00254089
0.00176238
-0.00196525
0.00172009
-0.00144293
0.0016846
-0.000994076
0.00165599
-0.000624088
0.00163046
-0.000324093
0.00160319
-7.69133e-05
0.00157188
0.000134695
0.00153659
0.000323704
0.00149838
0.000501343
0.00145995
0.000677015
0.00142678
0.000858041
0.00140864
0.00105
0.00142746
0.00126058
0.00150988
0.00148773
0.00170616
0.00175192
0.00198488
0.00179178
0.00215048
0.00127375
0.00174554
0.0013448
0.00677465
0.00297864
0.0101399
0.00202309
0.00699285
0.000869592
0.00433326
0.000371262
0.00323636
0.000214496
0.00233544
0.000270849
0.0015631
0.000424474
0.000923864
0.00063791
0.00030996
0.000896716
-0.000362537
0.00116111
-0.00110791
0.00143949
-0.00192618
0.0017069
-0.00279746
0.00193391
-0.00362183
0.00209602
-0.00426981
0.0021871
-0.00464753
0.00220956
-0.00472769
0.00217206
-0.00453852
0.00208824
-0.00413883
0.00197336
-0.00360037
0.00183313
-0.00299704
0.00167986
-0.00238762
0.00153053
-0.00181591
0.00139991
-0.00131232
0.00129639
-0.000890558
0.00122148
-0.000549173
0.00117062
-0.000273233
0.00113669
-4.29869e-05
0.00111438
0.000157003
0.00110007
0.000338021
0.00109129
0.000510118
0.00108765
0.00068066
0.00109096
0.000854729
0.00110526
0.0010357
0.00113926
0.00122657
0.0012039
0.00142309
0.00133443
0.00162139
0.00153548
0.00159073
0.00161225
0.001197
0.000291568
0.00266549
0.00744867
0.0040322
0.00624794
0.0036684
0.00735665
0.00254263
0.00545903
0.00188923
0.00388975
0.0015327
0.00269198
0.00138786
0.00170793
0.00142151
0.000890218
0.00159553
0.000135939
0.00184707
-0.000614078
0.00212375
-0.0013846
0.00240338
-0.0022058
0.00264879
-0.00304287
0.00281828
-0.00379131
0.00288463
-0.00433617
0.00284437
-0.00460726
0.00271111
-0.00459443
0.00250704
-0.00433446
0.00225642
-0.00388822
0.00198203
-0.00332598
0.00170099
-0.00271601
0.00143059
-0.00211722
0.0011887
-0.00157402
0.000990243
-0.00111386
0.000841812
-0.000742127
0.000742852
-0.000450214
0.000684994
-0.000215375
0.000657583
-1.55764e-05
0.000651795
0.000162791
0.000660546
0.000329269
0.000678898
0.000491766
0.000704251
0.000655307
0.00073528
0.0008237
0.0007701
0.00100088
0.000804034
0.00119264
0.000817502
0.00140962
0.000742757
0.00169613
0.000219543
0.00211395
-0.00171118
0.0031281
-0.00321826
0.00417276
0.00433329
0.00240937
0.0040031
0.00330442
0.00646161
0.00324841
0.00551504
0.00303772
0.00410046
0.00284681
0.00288289
0.00272355
0.00183119
0.00270949
0.000904275
0.00279809
4.7345e-05
0.00295949
-0.000775476
0.00316967
-0.00159478
0.00338709
-0.00242322
0.00355183
-0.00320761
0.00360904
-0.00384851
0.00353187
-0.004259
0.0033256
-0.004401
0.00301627
-0.0042851
0.00263821
-0.0039564
0.00222479
-0.0034748
0.00180555
-0.00290674
0.00140395
-0.00231442
0.00104151
-0.00175479
0.000737506
-0.00127002
0.000506223
-0.000882576
0.000346864
-0.000582768
0.000251766
-0.000355117
0.000205248
-0.000168857
0.000193681
-4.00971e-06
0.000206465
0.000150008
0.000235559
0.000300175
0.000276011
0.000451314
0.000324835
0.000606483
0.000379505
0.000769031
0.000435929
0.000944454
0.000486717
0.00114185
0.00050833
0.00138801
0.000439666
0.00176479
0.000135856
0.00241772
-0.000424658
0.00368889
-0.000752948
0.00450137
0.00369359
0.00145583
0.00274152
0.00274699
0.00517046
0.00343149
0.00483054
0.00371817
0.00381378
0.00381716
0.00278389
0.0038455
0.00180286
0.00388145
0.000868322
0.00395009
-2.12953e-05
0.0040594
-0.000884777
0.00419886
-0.00173424
0.00431739
-0.00254175
0.0043444
-0.00323461
0.00422818
-0.00373229
0.00395641
-0.00398723
0.00355151
-0.0039961
0.00305332
-0.00378692
0.00250575
-0.00340883
0.00194747
-0.00291651
0.00141246
-0.00237174
0.000926828
-0.0018288
0.00051726
-0.00134522
0.000201393
-0.000954154
-1.42336e-05
-0.000666949
-0.000144487
-0.000452516
-0.000212686
-0.000286918
-0.000239194
-0.000142349
-0.000235916
-7.28874e-06
-0.000210563
0.000124655
-0.000168472
0.000258084
-0.000113271
0.000396113
-4.76848e-05
0.000540897
2.58779e-05
0.000695468
0.000104612
0.000865721
0.00018606
0.00106041
0.000258617
0.00131545
0.00026149
0.00176186
0.000212703
0.00246627
0.000527531
0.0033739
0.00072335
0.00430555
0.00453616
0.00216666
0.000800822
0.00293914
0.00439797
0.00359176
0.00417793
0.00416369
0.00324184
0.00449268
0.00245491
0.00466766
0.00162788
0.00478446
0.000751513
0.00488836
-0.000125193
0.00499339
-0.000989806
0.00507025
-0.00181109
0.00505373
-0.00252522
0.00488368
-0.00306455
0.00453746
-0.00338606
0.004034
-0.00348375
0.00341841
-0.00338051
0.00274176
-0.00311026
0.00205273
-0.0027198
0.00138921
-0.002253
0.000789786
-0.00177231
0.000279165
-0.00131818
-0.000106484
-0.000959567
-0.000362683
-0.000697955
-0.000515496
-0.000514137
-0.000599793
-0.00036822
-0.000642425
-0.000244289
-0.000654723
-0.000130052
-0.000642771
-1.9242e-05
-0.000610493
9.23767e-05
-0.00056086
0.000208451
-0.000496988
0.000332241
-0.00042246
0.000466369
-0.000341338
0.000614347
-0.000257645
0.000782029
-0.000178249
0.000981012
-0.000130252
0.00126743
-0.000169292
0.00180074
-0.000173361
0.00246988
0.000388716
0.00281126
0.000766606
0.00392718
0.00543274
-0.00157624
0.00262217
0.00111766
0.00170407
0.00334986
0.00194574
0.00435406
0.00223764
0.00485971
0.00194925
0.00517522
0.00131237
0.00540291
0.000523821
0.00557912
-0.000301408
0.00567636
-0.00108704
0.00563318
-0.0017679
0.0053988
-0.00229083
0.00496137
-0.0026271
0.00434876
-0.00277344
0.0036143
-0.00274927
0.00281875
-0.00258494
0.00201278
-0.00230428
0.00124493
-0.00195195
0.000545905
-0.00155398
-3.83446e-05
-0.00118806
-0.000467685
-0.00088883
-0.000740496
-0.000686752
-0.000902475
-0.000535976
-0.000999551
-0.000417064
-0.00105451
-0.000313266
-0.00108065
-0.000218153
-0.00108321
-0.000127493
-0.00106464
-3.78138e-05
-0.00102664
5.43692e-05
-0.000971142
0.000152956
-0.000901542
0.000262642
-0.000823422
0.00038825
-0.00074546
0.000536387
-0.000682326
0.000718902
-0.00066289
0.000961604
-0.000733154
0.00133776
-0.00091498
0.00198257
-0.00121643
0.00277105
-0.00162752
0.00322178
-0.00156818
0.00386722
0.00401134
0.00288389
0.00457278
0.00487251
0.00164601
0.00536071
0.00174943
0.00559905
0.00171091
0.00583069
0.00108072
0.0060163
0.000338202
0.00608011
-0.000365224
0.00595161
-0.000958543
0.0055975
-0.00141378
0.00503021
-0.00172352
0.00429677
-0.00189364
0.00345593
-0.00193258
0.00256763
-0.00186095
0.00168813
-0.00170542
0.000851829
-0.00146798
0.000101344
-0.00120146
-0.000506647
-0.000945976
-0.000934794
-0.000759899
-0.00120247
-0.000621142
-0.00136944
-0.000519783
-0.00147255
-0.00043287
-0.00153759
-0.000352041
-0.00157582
-0.000275048
-0.0015919
-0.000202089
-0.00158718
-0.000132224
-0.00156213
-6.28674e-05
-0.00151793
1.0174e-05
-0.00145617
9.11924e-05
-0.00137933
0.000185811
-0.00129356
0.000302481
-0.00120947
0.000452289
-0.00114458
0.000654018
-0.00112815
0.000945233
-0.00119263
0.00140242
-0.00134469
0.00213498
-0.00175689
0.00318359
-0.00284482
0.00430995
-0.00318436
0.00420688
0.000990555
0.00793747
0.00535745
0.00581992
0.00386696
0.00557158
0.00195918
0.00564126
0.00101096
0.00560367
0.000375718
0.00535866
-0.000120255
0.00489368
-0.000493579
0.00424849
-0.000768583
0.00347676
-0.000951773
0.00263247
-0.00104932
0.00175841
-0.0010585
0.000894531
-0.000997056
7.82851e-05
-0.000889156
-0.000630163
-0.000759518
-0.00117584
-0.000655765
-0.00155251
-0.000569274
-0.00180248
-0.000509909
-0.001963
-0.000460614
-0.00207211
-0.000410679
-0.00214957
-0.000355438
-0.00220435
-0.000297312
-0.00223946
-0.000239974
-0.00225572
-0.00018587
-0.00225275
-0.000135205
-0.0022297
-8.59149e-05
-0.00218581
-3.3694e-05
-0.00212066
2.60553e-05
-0.00203333
9.84983e-05
-0.00192415
0.000193288
-0.00179729
0.0003254
-0.00166096
0.000517638
-0.00152412
0.000808373
-0.0013821
0.00126052
-0.00119849
0.00195173
-0.000921749
0.00290739
-0.000630648
0.00401934
-0.000290998
0.00386768
0.000873088
0.00411437
0.00148966
0.00451391
0.00346738
0.00373949
0.00273352
0.00323493
0.00151543
0.00288926
0.000721336
0.00252289
0.000246089
0.00207449
-4.51738e-05
0.00153038
-0.000224469
0.000910364
-0.000331747
0.000234124
-0.000373061
-0.000456115
-0.000368242
-0.00109815
-0.000354994
-0.00164014
-0.000347138
-0.00205171
-0.000347912
-0.00234557
-0.000361858
-0.00254307
-0.000371734
-0.00268337
-0.000369581
-0.00279327
-0.000350729
-0.00288594
-0.000318053
-0.00296424
-0.000277215
-0.00302749
-0.000234154
-0.0030745
-0.000193045
-0.0031045
-0.000155924
-0.00311661
-0.000123109
-0.00310873
-9.37708e-05
-0.00307606
-6.62911e-05
-0.0030124
-3.75355e-05
-0.00291192
-1.9294e-06
-0.00276756
4.89324e-05
-0.00257339
0.000131169
-0.00232703
0.000271151
-0.00202307
0.000504257
-0.00163116
0.000868488
-0.00107826
0.00139886
-0.000292662
0.00212207
0.000651171
0.00307585
0.00127966
0.00323962
0.0023295
-0.00260079
-0.00675937
-0.0074035
-0.00745696
-0.00374763
-0.00216616
-0.00167028
0.00138999
-0.000756724
0.0018199
-0.000557308
0.00131596
-0.000636573
0.000800562
-0.000823789
0.000433276
-0.0010674
0.000198421
-0.00135928
6.73917e-05
-0.00170238
1.13423e-05
-0.00207305
-2.40003e-06
-0.00243766
-3.61905e-06
-0.0027699
-2.27111e-05
-0.0030358
-8.11749e-05
-0.00321739
-0.000166251
-0.00333879
-0.000240388
-0.00343297
-0.00027752
-0.00352418
-0.000278383
-0.00362005
-0.000254922
-0.00371882
-0.000219394
-0.00381512
-0.000181043
-0.00390314
-0.000146279
-0.00397762
-0.000118677
-0.00403454
-9.90672e-05
-0.00407126
-8.639e-05
-0.0040856
-7.93568e-05
-0.00407397
-7.77846e-05
-0.00402846
-8.28793e-05
-0.00393537
-9.48547e-05
-0.00377775
-0.000108555
-0.00353781
-0.000108732
-0.00320234
-6.43966e-05
-0.00276424
6.59487e-05
-0.0022006
0.000304551
-0.00143076
0.000628717
-0.000365029
0.00105616
0.000898217
0.00181264
0.00134229
0.00279568
0.00385386
-0.00734675
0.00104082
-0.00811537
-0.00668834
-0.00717019
-0.00311136
-0.00565131
-0.000128907
-0.00455847
0.000727004
-0.00396588
0.000723302
-0.00370526
0.000539877
-0.00363713
0.000365086
-0.00367822
0.000239464
-0.00377274
0.000161894
-0.00387847
0.000117068
-0.00396645
8.56133e-05
-0.0040223
5.22798e-05
-0.00405387
8.93603e-06
-0.00408303
-5.19138e-05
-0.00412775
-0.000121452
-0.00419537
-0.000172708
-0.0042821
-0.000190799
-0.00437876
-0.000181788
-0.00447577
-0.000158035
-0.00456593
-0.000129397
-0.00464491
-0.000102248
-0.00471058
-8.07709e-05
-0.00476203
-6.73453e-05
-0.00479879
-6.23661e-05
-0.00482047
-6.4682e-05
-0.00482643
-7.32787e-05
-0.00481472
-8.93029e-05
-0.00478104
-0.000116302
-0.00471755
-0.000158036
-0.00461264
-0.000213154
-0.00445095
-0.000270145
-0.00421132
-0.000303833
-0.00386555
-0.000279803
-0.00338993
-0.00017128
-0.00275151
-1.01406e-05
-0.00173962
4.37455e-05
3.42621e-05
3.83539e-05
0.00106195
0.00176786
0.00510298
0.00158239
-0.00504151
-0.00809
-0.00815979
-0.00737869
-0.006609
-0.00602929
-0.00562902
-0.0053573
-0.00516476
-0.00501767
-0.00490192
-0.00481889
-0.00477848
-0.00479851
-0.00488805
-0.00502909
-0.00518853
-0.00533921
-0.00546629
-0.00556478
-0.00563612
-0.00568596
-0.00572241
-0.00575401
-0.00578823
-0.00583153
-0.00589156
-0.00597955
-0.00611045
-0.00629789
-0.00654392
-0.00682529
-0.00708421
-0.00723595
-0.00722762
-0.00716624
-0.00711095
-0.00532676
)
;

boundaryField
{
    floor
    {
        type            calculated;
        value           nonuniform List<scalar> 
36
(
0
0
0
0
0
0
0
0
0
0
0
0
0
0
0
0
0
0
0
-6.43927e-06
-1.68849e-05
-2.60318e-05
-3.4307e-05
-3.49078e-05
-2.84802e-05
-2.85291e-05
-2.92045e-06
-5.44245e-06
-5.68881e-06
-5.90898e-06
-4.85423e-06
-8.94025e-06
-1.02104e-05
-1.2834e-05
-1.44558e-05
-1.5445e-05
)
;
    }
    ceiling
    {
        type            calculated;
        value           nonuniform List<scalar> 
43
(
-5.77909e-05
-6.44593e-05
-6.29149e-05
-5.91987e-05
-5.4184e-05
-4.64955e-05
-3.99316e-05
-3.52762e-05
-3.23145e-05
-3.06648e-05
-3e-05
-3.00841e-05
-3.06661e-05
-3.13776e-05
-3.17981e-05
-3.18405e-05
-3.16529e-05
-3.14038e-05
-3.12038e-05
-3.1092e-05
-3.10568e-05
-3.10593e-05
-3.10483e-05
-3.09693e-05
-3.07699e-05
-3.04045e-05
-2.98393e-05
-2.9054e-05
-2.80409e-05
-2.68062e-05
-2.53794e-05
-2.38318e-05
-2.22845e-05
-2.08771e-05
-1.97037e-05
-1.87667e-05
-1.79901e-05
-1.72732e-05
-1.65826e-05
-1.68208e-05
1.93396e-05
1.51852e-05
-0.000246577
)
;
    }
    sWall
    {
        type            calculated;
        value           nonuniform List<scalar> 9(-0.000140239 -0.000164527 -0.000194256 -0.000225962 -0.000245117 -0.000281056 -0.000423515 -0.00045342 -0.000483775);
    }
    nWall
    {
        type            calculated;
        value           nonuniform List<scalar> 
14
(
-8.99096e-05
-9.72934e-05
-0.000102367
-0.000102938
-0.000113253
-0.000119355
-0.000130464
-0.000147143
-0.000163529
-0.000172884
-0.000176456
-0.000181964
-0.000187229
-0.000207089
)
;
    }
    sideWalls
    {
        type            empty;
        value           nonuniform 0();
    }
    glass1
    {
        type            calculated;
        value           nonuniform List<scalar> 9(-6.40344e-05 -0.000170322 -0.000257925 -0.000331209 -0.000393194 -0.0004464 -0.000492211 -0.000535491 -0.000587173);
    }
    glass2
    {
        type            calculated;
        value           nonuniform List<scalar> 2(-0.00036421 -0.000382564);
    }
    sun
    {
        type            calculated;
        value           uniform 0;
    }
    Table_master
    {
        type            calculated;
        value           nonuniform List<scalar> 9(-1.53993e-07 -1.54109e-07 -1.54141e-07 -1.54162e-07 -1.54175e-07 -1.5418e-07 -1.54178e-07 -1.54164e-07 -1.54111e-07);
    }
    Table_slave
    {
        type            calculated;
        value           nonuniform List<scalar> 9(1.53662e-07 1.53718e-07 1.53717e-07 1.53734e-07 1.53755e-07 1.53799e-07 1.53866e-07 1.53959e-07 1.54086e-07);
    }
    inlet
    {
        type            calculated;
        value           uniform -0.0116489;
    }
    outlet
    {
        type            calculated;
        value           nonuniform List<scalar> 2(0.00978373 0.0122597);
    }
}


// ************************************************************************* //
