/*--------------------------------*- C++ -*----------------------------------*\
  =========                 |
  \\      /  F ield         | OpenFOAM: The Open Source CFD Toolbox
   \\    /   O peration     | Website:  https://openfoam.org
    \\  /    A nd           | Version:  6
     \\/     M anipulation  |
\*---------------------------------------------------------------------------*/
FoamFile
{
    version     2.0;
    format      ascii;
    class       surfaceScalarField;
    location    "25499.9999988519958";
    object      phi;
}
// * * * * * * * * * * * * * * * * * * * * * * * * * * * * * * * * * * * * * //

dimensions      [1 0 -1 0 0 0 0];

internalField   nonuniform List<scalar> 
1482
(
-0.00279974
0.00286378
-0.00348389
0.000684143
-0.00414444
0.000660556
-0.00475835
0.000613909
-0.00527953
0.000521174
-0.00569124
0.000411711
-0.00598228
0.000291047
-0.00613963
0.000157348
-0.00614596
6.33182e-06
-0.0059753
-0.00017066
-0.00559768
-0.000377621
-0.00498201
-0.000615666
-0.00405806
-0.000923955
-0.00257956
-0.0014785
-0.00257664
-6.38006e-05
6.86554e-05
0.000781317
-0.000845117
0.00143512
-0.000653808
0.0018358
-0.000400676
0.00205848
-0.000222682
0.00216326
-0.000104775
0.00221054
-4.72858e-05
0.00223332
-2.27738e-05
0.00224313
-9.80935e-06
0.0022441
-9.77835e-07
0.00223708
7.0205e-06
0.00221804
1.90397e-05
0.00217366
4.43874e-05
0.00207067
0.000102983
0.00185358
0.000217095
0.00149526
0.000358315
0.00102242
0.00047284
0.00102886
-0.00204033
0.00507443
-0.00290837
0.00155218
-0.00369407
0.00144625
-0.00434491
0.00126475
-0.00488193
0.0010582
-0.00531045
0.000840231
-0.00562872
0.000609312
-0.00582996
0.000358593
-0.00590354
7.99084e-05
-0.00584161
-0.000232586
-0.00563834
-0.000580893
-0.00528235
-0.00097165
-0.00477244
-0.00143387
-0.00428661
-0.00196433
-0.00470252
-0.00216073
-0.00311677
-0.0015803
-0.00163422
-0.00147687
-0.00161937
0.00131812
-0.00123925
0.00166308
-0.00119008
0.00191587
-0.000906593
0.00210829
-0.000593103
0.00221678
-0.000331173
0.00222597
-0.000113961
0.00222791
-4.92285e-05
0.00222946
-2.43251e-05
0.00223037
-1.07145e-05
0.00223035
-9.61405e-07
0.00222899
8.38059e-06
0.0022248
2.32346e-05
0.00221214
5.704e-05
0.00215012
0.000165009
0.00190014
0.000467068
0.00146991
0.000788543
0.0009049
0.00103785
0.00195064
-0.00148821
0.00682056
-0.00235902
0.00242299
-0.00312885
0.00221608
-0.00371288
0.00184878
-0.00418332
0.00152863
-0.00455452
0.00121143
-0.00482831
0.000883109
-0.00500151
0.000531787
-0.00506772
0.00014612
-0.00501788
-0.00028243
-0.0048412
-0.000757571
-0.00453019
-0.00128266
-0.00411558
-0.00184847
-0.00371804
-0.00236188
-0.00329755
-0.00258122
-0.00236627
-0.00251158
-0.00127271
-0.00257043
-0.00287925
0.00115131
-0.00237611
0.0016551
-0.00169386
0.00195394
-0.00120544
0.00214762
-0.000786775
0.00217956
-0.000363113
0.00206575
0.00201668
0.0019925
0.00198194
0.00198114
0.00198967
0.00201306
0.00207025
0.00223542
0.00187705
0.000825438
0.00142874
0.00123685
0.000807755
0.00165884
0.00278442
-0.00110602
0.00825778
-0.00192785
0.00324483
-0.00256974
0.00285797
-0.0030299
0.00230895
-0.00339722
0.00189596
-0.00368577
0.00149997
-0.00389856
0.0010959
-0.00403378
0.000667011
-0.00408395
0.00019629
-0.00403588
-0.000330495
-0.00387726
-0.00091619
-0.00360389
-0.00155604
-0.00323826
-0.00221411
-0.00281616
-0.00278398
-0.00227658
-0.0031208
-0.00155681
-0.00323135
-0.000868539
-0.0032587
-0.000688304
-0.00305949
0.00144815
-0.00212101
0.00137898
-0.00230694
0.00169407
-0.00200895
0.00200639
-0.00151775
0.00227244
-0.00105283
0.00254763
-0.000638301
0.00286372
-0.00031624
0.00303249
-0.000168924
0.00309867
-6.63374e-05
0.00308283
1.56837e-05
0.00299378
8.89042e-05
0.00283249
0.000161133
0.00259114
0.00024119
0.00224679
0.000344203
0.00174206
0.000504574
0.00160574
0.000961761
0.00127851
0.00156407
0.000751546
0.00218581
0.00357026
-0.000803731
0.00945469
-0.00157981
0.00402091
-0.00204831
0.00332646
-0.00236385
0.00262449
-0.00260802
0.00214012
-0.00279332
0.00168528
-0.00292478
0.00122736
-0.00300315
0.000745379
-0.00302189
0.000215035
-0.00296443
-0.000387963
-0.00281746
-0.00106315
-0.00257395
-0.00179955
-0.00224036
-0.00254769
-0.0018238
-0.00320055
-0.00131838
-0.00362623
-0.000741732
-0.003808
-0.000210333
-0.00379011
0.000266917
-0.00353674
0.00112775
-0.00298185
0.00149317
-0.00267236
0.00175144
-0.00226722
0.00200346
-0.00176977
0.00223313
-0.0012825
0.00244756
-0.000852726
0.0026499
-0.000518583
0.00276164
-0.000280669
0.00279957
-0.000104266
0.0027753
3.99561e-05
0.00269513
0.000169077
0.00256149
0.000294772
0.00237322
0.000429458
0.0021281
0.000589322
0.00183452
0.000798154
0.00163009
0.00116619
0.00149135
0.00170281
0.0013172
0.00235996
0.00231357
0.00257388
0.00134488
0.00100359
0.00188485
-0.000511265
0.00200342
-0.000575833
0.0104769
-0.00132469
0.00476976
-0.00158413
0.0035859
-0.00174987
0.00279024
-0.00186366
0.00225392
-0.00193495
0.00175656
-0.0019702
0.00126262
-0.00197374
0.000748911
-0.00194233
0.000183629
-0.00185434
-0.000475958
-0.00169991
-0.00121758
-0.001469
-0.00203047
-0.00116447
-0.00285223
-0.00079213
-0.00357288
-0.000372327
-0.00404603
6.8031e-05
-0.00424835
0.000473308
-0.00419538
0.000847698
-0.00391113
0.00129839
-0.00343254
0.00159672
-0.0029707
0.00179944
-0.00246993
0.00197053
-0.00194087
0.00212223
-0.0014342
0.00225729
-0.000987783
0.00236339
-0.000624688
0.00242331
-0.000340584
0.0024363
-0.000117258
0.00240734
6.89166e-05
0.00234105
0.000235367
0.00224112
0.000394699
0.00211161
0.000558969
0.00195976
0.00074117
0.00180056
0.000957353
0.00171114
0.00125562
0.00177214
0.00164181
0.0019911
0.002141
0.00224517
0.00231981
0.00176321
0.00148555
0.000836148
0.000415795
0.0029368
-0.000543524
0.0115126
-0.00124369
0.00546993
-0.00119179
0.003534
-0.00119992
0.00279836
-0.00119205
0.00224605
-0.00115836
0.00172288
-0.00110104
0.00120529
-0.00102585
0.000673718
-0.000927135
8.49178e-05
-0.000778098
-0.000624995
-0.00058882
-0.00140686
-0.000348706
-0.00227058
-6.48984e-05
-0.00313603
0.000239832
-0.00387761
0.00054973
-0.00435593
0.000844857
-0.00454348
0.00110785
-0.00445838
0.00134113
-0.00414441
0.00157258
-0.003664
0.00173177
-0.00312989
0.00183116
-0.00256933
0.00190094
-0.00201064
0.00195697
-0.00149024
0.00200453
-0.00103534
0.00203835
-0.000658507
0.0020525
-0.000354733
0.00204321
-0.000107972
0.0020109
0.000101224
0.00195835
0.000287917
0.0018891
0.000463956
0.00180819
0.000639871
0.00172427
0.000825096
0.00165291
0.00102871
0.00163872
0.00126981
0.00172916
0.00155137
0.00194966
0.0019205
0.00222141
0.00204805
0.00224693
0.00146003
0.00165591
0.00100681
0.00469534
-0.000483765
0.0125319
-0.00105163
0.0060378
-0.000697365
0.00317973
-0.000636262
0.00273726
-0.000567627
0.00217741
-0.000462642
0.00161789
-0.000333291
0.00107594
-0.000181705
0.000522133
7.85331e-06
-0.000104641
0.000226173
-0.000843315
0.000466057
-0.00164674
0.000723824
-0.00252834
0.000980683
-0.00339289
0.00120904
-0.00410597
0.00140827
-0.00455515
0.00156941
-0.00470462
0.00168719
-0.00457616
0.00176629
-0.0042235
0.00181906
-0.00371678
0.00182874
-0.00313957
0.00180368
-0.00254427
0.00176306
-0.00197003
0.00172199
-0.00144917
0.00168805
-0.0010014
0.00166122
-0.000631677
0.00163738
-0.000330886
0.00161134
-8.19315e-05
0.00158046
0.000132098
0.00154456
0.000323824
0.00150454
0.000503969
0.00146322
0.000681198
0.00142655
0.00086176
0.00140571
0.00104956
0.0014256
0.00124991
0.00151892
0.00145805
0.00174539
0.00169404
0.00207717
0.00171627
0.00223929
0.0012979
0.00174257
0.00150353
0.00680489
0.00297875
0.0101403
0.00202336
0.00699318
0.000869908
0.00433319
0.000371407
0.00323576
0.000214577
0.00233424
0.000271238
0.00156123
0.000425535
0.000921644
0.000639844
0.000307824
0.000899491
-0.000364288
0.00116481
-0.00110864
0.00144359
-0.00192552
0.00171067
-0.00279542
0.00193661
-0.00361883
0.00209719
-0.00426654
0.00218671
-0.00464466
0.00220787
-0.00472578
0.00216955
-0.00453782
0.00208535
-0.00413931
0.00197049
-0.00360192
0.00183061
-0.0029997
0.00167803
-0.00239169
0.00152986
-0.00182185
0.00140096
-0.00132027
0.00129976
-0.000900203
0.00122751
-0.00055943
0.00117919
-0.000282562
0.00114714
-4.98799e-05
0.00112554
0.0001537
0.00111031
0.000339045
0.00109865
0.000515632
0.00108981
0.000690038
0.00108549
0.000866083
0.00109048
0.00104456
0.00111683
0.00122357
0.00118633
0.00138855
0.00136607
0.0015143
0.00172002
0.00136232
0.00185124
0.00116668
0.000523792
0.00283093
0.00771265
0.00403326
0.00624726
0.00366987
0.00735657
0.00254411
0.00545894
0.00189058
0.00388929
0.00153397
0.00269086
0.00138924
0.00170596
0.00142332
0.000887558
0.0015982
0.00013295
0.00185077
-0.000616856
0.00212837
-0.00138624
0.00240836
-0.0022055
0.00265332
-0.00304038
0.00282156
-0.00378707
0.00288616
-0.00433113
0.00284403
-0.00460252
0.00270914
-0.00459088
0.00250382
-0.0043325
0.00225236
-0.00388785
0.0019775
-0.00332705
0.00169638
-0.00271858
0.00142641
-0.00212172
0.0011858
-0.00158125
0.000989638
-0.0011241
0.000844704
-0.000755269
0.000749913
-0.000464639
0.000696087
-0.000228736
0.000671747
-2.55392e-05
0.000667359
0.000158088
0.000675287
0.000331117
0.000689969
0.000500951
0.000707816
0.000672192
0.000725764
0.000848135
0.000739825
0.0010305
0.000742747
0.00122064
0.000715235
0.00141606
0.000598583
0.00163095
-4.45648e-06
0.00196537
-0.00174534
0.00290753
-0.00305514
0.00414062
0.00476159
0.00241069
0.0040011
0.00330636
0.0064609
0.00325021
0.0055151
0.00303925
0.00410026
0.0028483
0.00288181
0.00272529
0.00182897
0.0027118
0.000901054
0.00280135
4.33962e-05
0.00296396
-0.00077946
0.0031751
-0.00159739
0.00339284
-0.00242324
0.00355705
-0.00320458
0.00361294
-0.00384295
0.00353398
-0.00425215
0.00332576
-0.00439429
0.00301458
-0.00427969
0.00263483
-0.00395275
0.00221988
-0.00347289
0.00179926
-0.00290643
0.0013966
-0.00231593
0.00103378
-0.0017589
0.000731054
-0.00127852
0.000502914
-0.000895962
0.000349004
-0.00060136
0.000260488
-0.000376123
0.000220413
-0.00018866
0.000213745
-1.88713e-05
0.000229054
0.000142779
0.000258035
0.000302137
0.000295167
0.000463818
0.0003362
0.000631159
0.000375274
0.000809062
0.000403019
0.00100276
0.000399722
0.00122394
0.00032153
0.00149425
7.76464e-05
0.00187485
-0.000631576
0.00267486
-0.00189458
0.00417076
-0.00232962
0.00457571
0.00254857
0.00145713
0.00273824
0.00274853
0.00516951
0.0034325
0.00483113
0.00371867
0.00381409
0.00381747
0.002783
0.00384616
0.00180029
0.00388323
0.000863991
0.00395342
-2.67901e-05
0.00406419
-0.000890225
0.00420477
-0.00173797
0.00432372
-0.00254219
0.00435029
-0.00323115
0.00423297
-0.00372562
0.0039597
-0.00397887
0.00355309
-0.00398766
0.00305299
-0.00377958
0.00250318
-0.00340293
0.00194221
-0.00291191
0.00140407
-0.00236828
0.0009155
-0.00182736
0.000503965
-0.00134736
0.000189439
-0.000963997
-2.09843e-05
-0.00068554
-0.000142906
-0.000479438
-0.000201452
-0.000317577
-0.000218736
-0.000171376
-0.000208199
-2.94079e-05
-0.000178479
0.00011306
-0.000135074
0.000258733
-8.14069e-05
0.000410151
-2.02427e-05
0.000569995
4.4186e-05
0.000744634
0.000103725
0.00094322
0.000141504
0.00118616
0.000120255
0.00151549
-2.4502e-05
0.0020196
-0.000270961
0.0029216
-0.000657329
0.0045576
-0.00088609
0.00480486
0.00179134
0.00217078
0.00079345
0.00294069
0.0043996
0.00359142
0.0041804
0.0041623
0.00324322
0.00449071
0.00245459
0.00466593
0.00162506
0.00478391
0.000746015
0.00488993
-0.000132808
0.0049973
-0.000997603
0.00507589
-0.00181657
0.00506023
-0.00252653
0.00489029
-0.00306122
0.00454375
-0.00337909
0.00403969
-0.0034748
0.00342306
-0.00337102
0.00274454
-0.00310105
0.00205228
-0.00271066
0.0013839
-0.00224353
0.000777958
-0.00176233
0.00026087
-0.00131027
-0.000127842
-0.000958649
-0.000381519
-0.000710322
-0.000526351
-0.000540709
-0.00059905
-0.00040674
-0.000628085
-0.000288542
-0.000627205
-0.000172254
-0.000604648
-5.19641e-05
-0.000565882
7.4295e-05
-0.000513824
0.000206675
-0.000449846
0.000346175
-0.000374811
0.00049496
-0.000288612
0.000658434
-0.00019259
0.000847198
-9.26106e-05
0.00108618
-1.00528e-05
0.00143291
3.13564e-05
0.00197812
0.000173254
0.0027797
0.00062331
0.00410787
0.000905954
0.00452253
0.00283202
-0.00158213
0.00262068
0.00111478
0.00170269
0.00334756
0.00194762
0.00435059
0.00224019
0.00485516
0.00195003
0.00517089
0.00130932
0.00540044
0.000516466
0.00557953
-0.000311905
0.00567934
-0.00109744
0.00563805
-0.00177531
0.00540507
-0.00229358
0.00496892
-0.00262508
0.00435773
-0.0027679
0.00362449
-0.00274155
0.00282905
-0.00257558
0.00202097
-0.00229297
0.00124757
-0.00193726
0.000538922
-0.00153488
-5.72495e-05
-0.00116616
-0.000496115
-0.000871407
-0.000772056
-0.000682714
-0.000930401
-0.000551984
-0.00101687
-0.000454244
-0.00105611
-0.000367506
-0.00106368
-0.000280971
-0.00104767
-0.000188251
-0.00101374
-8.58952e-05
-0.000966975
2.75337e-05
-0.000909766
0.000149467
-0.000841946
0.000278356
-0.000763266
0.00041628
-0.000671777
0.000566947
-0.000565302
0.000740724
-0.000446865
0.000967725
-0.000329176
0.00131514
-0.000182897
0.0018316
0.000170653
0.00242582
0.00102813
0.00325031
0.00156174
0.0039889
0.00453694
0.00288239
0.00456989
0.00486974
0.00164777
0.00535606
0.00175387
0.00559275
0.00171334
0.00582485
0.00107722
0.00601277
0.000328538
0.00607881
-0.000377978
0.00595216
-0.000970837
0.00560004
-0.00142325
0.00503554
-0.00172911
0.00430592
-0.00189548
0.00346972
-0.00193172
0.00258542
-0.00185725
0.00170711
-0.00169727
0.000866902
-0.00145276
0.000104898
-0.00117526
-0.000520183
-0.000909797
-0.00096507
-0.000721283
-0.00124401
-0.000592485
-0.00141428
-0.000512458
-0.00151243
-0.000453846
-0.00156471
-0.000401979
-0.00158382
-0.000348385
-0.00157652
-0.000288266
-0.00154711
-0.000217645
-0.00150032
-0.000132672
-0.00144252
-3.02597e-05
-0.00137974
8.66928e-05
-0.00131453
0.000213149
-0.0012482
0.000349945
-0.00118307
0.000501823
-0.00112268
0.000680365
-0.00106906
0.000914131
-0.00100794
0.00125394
-0.000880039
0.00170339
-0.000521794
0.00206699
0.000493235
0.00223467
0.00106035
0.00342122
0.00575121
0.00793404
0.00536233
0.00581443
0.0038735
0.00556581
0.001962
0.00563712
0.00100594
0.00560047
0.000365175
0.005355
-0.000132536
0.00489037
-0.000506255
0.00424801
-0.000780917
0.0034822
-0.000963316
0.00264603
-0.00105932
0.00178099
-0.00106668
0.000923539
-0.000999799
0.000106975
-0.000880702
-0.000612661
-0.000733126
-0.00117895
-0.000608973
-0.0015786
-0.000510161
-0.0018479
-0.000452011
-0.00202052
-0.0004199
-0.00213304
-0.000399977
-0.00220531
-0.000381598
-0.00224695
-0.000360349
-0.0022617
-0.000333623
-0.00225111
-0.000298815
-0.00221637
-0.000252345
-0.00215967
-0.000189323
-0.00208617
-0.000103735
-0.00200892
9.45118e-06
-0.00193894
0.000143155
-0.00187972
0.000290703
-0.00183861
0.000460714
-0.00182449
0.000666321
-0.00184365
0.000933447
-0.00188342
0.00129391
-0.00193469
0.0017547
-0.00208895
0.00222101
-0.00241262
0.00255781
-0.00219343
0.00320136
0.00372704
0.00411421
0.00149466
0.00451498
0.00347275
0.00374175
0.00273525
0.00323594
0.00151175
0.00288755
0.000713541
0.00251854
0.000236436
0.00206988
-5.76219e-05
0.0015312
-0.000242237
0.000921853
-0.000353959
0.00025927
-0.000396727
-0.000419591
-0.000387812
-0.00105873
-0.000360652
-0.00161001
-0.000329407
-0.00204303
-0.000300114
-0.00236444
-0.00028758
-0.00258891
-0.000285737
-0.00274938
-0.000291608
-0.00287004
-0.000299304
-0.00296417
-0.000305903
-0.00303588
-0.000309911
-0.00308545
-0.000310769
-0.0031114
-0.000307619
-0.00311149
-0.000298636
-0.00308348
-0.000280251
-0.00302621
-0.000246494
-0.00294095
-0.000188931
-0.00283373
-9.77769e-05
-0.00272406
3.34136e-05
-0.00262937
0.000195919
-0.002552
0.000383271
-0.00248826
0.000602591
-0.00243384
0.000879195
-0.00237581
0.00123623
-0.00231095
0.00169025
-0.00242534
0.00233577
-0.00317449
0.00330726
-0.00339859
0.00342564
0.000511148
-0.00259341
-0.00675497
-0.0074113
-0.00745901
-0.00374857
-0.00216813
-0.0016695
0.00139366
-0.000756601
0.00182234
-0.000559928
0.00131506
-0.000641735
0.000795334
-0.000827739
0.000422436
-0.00106585
0.000180489
-0.00134967
4.16073e-05
-0.00168159
-2.20096e-05
-0.00203867
-3.96019e-05
-0.00239188
-3.45758e-05
-0.0027197
-3.28091e-05
-0.00299676
-5.23519e-05
-0.0032079
-8.9005e-05
-0.00336753
-0.000128019
-0.00349642
-0.000156935
-0.00361157
-0.000176562
-0.00371903
-0.000191931
-0.00381814
-0.000206852
-0.00390519
-0.000222862
-0.00397549
-0.000240405
-0.00402368
-0.00025931
-0.00404401
-0.000278138
-0.00403144
-0.000292635
-0.00398324
-0.000294521
-0.00390004
-0.000272024
-0.00378528
-0.000212531
-0.0036459
-0.000106102
-0.00350057
5.03657e-05
-0.00335325
0.00023572
-0.00318077
0.000429922
-0.00295582
0.000654199
-0.00264272
0.000923267
-0.00218067
0.00122852
-0.00143958
0.00159509
-0.000281518
0.00214958
0.000611819
0.00253266
0.00130491
-0.0073426
0.00104118
-0.00811693
-0.00668474
-0.00717166
-0.00311345
-0.00565197
-0.000126087
-0.00455958
0.000729937
-0.00396879
0.000724256
-0.00371075
0.000537313
-0.0036449
0.000356629
-0.00368667
0.000222312
-0.0037792
0.000134197
-0.00388065
7.94954e-05
-0.00396659
4.6398e-05
-0.00402756
2.64275e-05
-0.00407065
1.0285e-05
-0.00411127
-1.17703e-05
-0.00416096
-3.93877e-05
-0.00422352
-6.55782e-05
-0.00429541
-8.51653e-05
-0.00437231
-9.9771e-05
-0.00445055
-0.000113771
-0.00452709
-0.000130329
-0.00459928
-0.00015062
-0.00466472
-0.000174848
-0.0047211
-0.000202732
-0.0047662
-0.000232796
-0.00479772
-0.000260849
-0.00481292
-0.000279077
-0.00480763
-0.00027716
-0.00477479
-0.000245343
-0.00470388
-0.000177156
-0.00458337
-7.04688e-05
-0.00440856
6.04962e-05
-0.00416765
0.000188611
-0.00382073
0.000306961
-0.00332222
0.000424587
-0.00260243
0.000508721
-0.00143927
0.00043205
0.000530298
0.000180201
0.00188063
0.00118258
0.00336874
0.00158293
-0.00503708
-0.00808718
-0.00815362
-0.00736905
-0.0065979
-0.00602033
-0.00562821
-0.0053735
-0.00520865
-0.00509924
-0.00502286
-0.00496586
-0.00492428
-0.00490425
-0.00491155
-0.00494489
-0.00499772
-0.00506511
-0.0051465
-0.00524458
-0.00536323
-0.00550661
-0.00567862
-0.00588169
-0.00611404
-0.00636595
-0.00661729
-0.00683801
-0.0069915
-0.007039
-0.00695602
-0.00674526
-0.0064165
-0.00597062
-0.00544135
-0.00498973
-0.00479109
-0.00359121
)
;

boundaryField
{
    floor
    {
        type            calculated;
        value           nonuniform List<scalar> 
36
(
0
0
0
0
0
0
0
0
0
0
0
0
0
0
0
0
0
0
0
-6.43885e-06
-1.68818e-05
-2.60244e-05
-3.42882e-05
-3.49004e-05
-2.86988e-05
-2.85628e-05
-2.9204e-06
-5.44172e-06
-5.68804e-06
-5.90804e-06
-4.8547e-06
-8.93883e-06
-1.0209e-05
-1.28316e-05
-1.44564e-05
-1.54457e-05
)
;
    }
    ceiling
    {
        type            calculated;
        value           nonuniform List<scalar> 
43
(
-5.78451e-05
-6.47887e-05
-6.33993e-05
-5.96889e-05
-5.4642e-05
-4.68808e-05
-4.02071e-05
-3.54133e-05
-3.23076e-05
-3.05441e-05
-2.98285e-05
-2.99262e-05
-3.05493e-05
-3.13076e-05
-3.18659e-05
-3.21775e-05
-3.23416e-05
-3.24332e-05
-3.24655e-05
-3.24132e-05
-3.22343e-05
-3.18825e-05
-3.13169e-05
-3.05133e-05
-2.94782e-05
-2.82634e-05
-2.69708e-05
-2.5733e-05
-2.46701e-05
-2.38484e-05
-2.32663e-05
-2.2863e-05
-2.25259e-05
-2.21133e-05
-2.15122e-05
-2.06622e-05
-1.95813e-05
-1.8372e-05
-1.71674e-05
-1.63969e-05
1.93311e-05
1.51845e-05
-0.000246553
)
;
    }
    sWall
    {
        type            calculated;
        value           nonuniform List<scalar> 9(-0.000140237 -0.000164531 -0.000194273 -0.000225986 -0.000245103 -0.00028104 -0.000423504 -0.000453606 -0.000483931);
    }
    nWall
    {
        type            calculated;
        value           nonuniform List<scalar> 
14
(
-9.00061e-05
-9.72342e-05
-0.000102637
-0.000104106
-0.000116629
-0.00012872
-0.000134588
-0.000143334
-0.00015449
-0.000169807
-0.000182753
-0.000181511
-0.000183038
-0.000205917
)
;
    }
    sideWalls
    {
        type            empty;
        value           nonuniform 0();
    }
    glass1
    {
        type            calculated;
        value           nonuniform List<scalar> 9(-6.40339e-05 -0.00017032 -0.00025792 -0.000331202 -0.000393183 -0.000446386 -0.000492195 -0.000535476 -0.000587162);
    }
    glass2
    {
        type            calculated;
        value           nonuniform List<scalar> 2(-0.000366984 -0.000383985);
    }
    sun
    {
        type            calculated;
        value           uniform 0;
    }
    Table_master
    {
        type            calculated;
        value           nonuniform List<scalar> 9(-1.53991e-07 -1.54108e-07 -1.5414e-07 -1.5416e-07 -1.54173e-07 -1.54178e-07 -1.54176e-07 -1.54162e-07 -1.54109e-07);
    }
    Table_slave
    {
        type            calculated;
        value           nonuniform List<scalar> 9(1.53661e-07 1.53717e-07 1.53716e-07 1.53732e-07 1.53753e-07 1.53797e-07 1.53863e-07 1.53957e-07 1.54084e-07);
    }
    inlet
    {
        type            calculated;
        value           uniform -0.0116486;
    }
    outlet
    {
        type            calculated;
        value           nonuniform List<scalar> 2(0.00977182 0.0122768);
    }
}


// ************************************************************************* //
