/*--------------------------------*- C++ -*----------------------------------*=========                 |
  \      /  F ield         | OpenFOAM: The Open Source CFD Toolbox
   \    /   O peration     | Website:  https://openfoam.org
    \  /    A nd           | Version:  6
     \/     M anipulation  |
\*---------------------------------------------------------------------------*/
FoamFile
{
    version     2.0;
    format      ascii;
    class       volScalarField;
    location    "10";
    object      PMV;
}
// * * * * * * * * * * * * * * * * * * * * * * * * * * * * * * * * * * * * * //

dimensions      [0 0 0 0 0 0 0];

internalField   nonuniform List<scalar> 
458
(
2.86088406736312
2.716254910083207
2.679991247133179
2.6585149125032883
2.65299409782483
2.6678324455961118
2.6971956795998415
2.720145795334428
2.7347904383444135
2.7430750283251313
2.7506935600518534
2.7573981378112467
2.7640376450917836
2.7659086590677138
2.764976704984685
2.764510695263711
2.7673064262125764
2.767772304710109
2.767772304710109
2.767772304710109
2.767772304710109
2.767772304710109
2.767772304710109
2.767772304710109
2.767772304710109
2.767772304710109
2.767772304710109
2.767772304710109
2.767772304710109
2.767772304710109
2.767772304710109
2.7673064262125764
2.764510695263711
2.8820999501149824
2.7055278495785235
2.6384702804313482
2.5897849238205772
2.566384647580901
2.574939861381218
2.6110410310764633
2.660373640860938
2.695789197645016
2.7202653362536195
2.7368156919997237
2.7487607894847144
2.7577860397042913
2.7635786106557174
2.7659086590677138
2.7668405257468542
2.7668405257468542
2.764510695263711
2.7673064262125764
2.7687039956434405
2.7691698080002287
2.7691698080002287
2.7691698080002287
2.769635598230934
2.769635598230934
2.769635598230934
2.769635598230934
2.769635598230934
2.769635598230934
2.769635598230934
2.769635598230934
2.769635598230934
2.7691698080002287
2.7691698080002287
2.7687039956434405
2.7673064262125764
2.9096548687804717
2.679919543583615
2.5877078549091586
2.5089486312526854
2.4618471707753597
2.462068981628142
2.510356350572471
2.5821505803343943
2.645930160671657
2.690161736459652
2.7193374137326987
2.738572114071892
2.7515021245687636
2.7596474782602423
2.7640446638078804
2.7663746033522587
2.7673064262125764
2.7673064262125764
2.7682381612002214
2.7691698080002287
2.769635598230934
2.769635598230934
2.769635598230934
2.769635598230934
2.770101366295698
2.770101366295698
2.770101366295698
2.770101366295698
2.770101366295698
2.770101366295698
2.770101366295698
2.770101366295698
2.769635598230934
2.769635598230934
2.7691698080002287
2.767772304710109
2.934221867342686
2.6404280755533924
2.519763999788879
2.4068286946516766
2.325105999479915
2.3121624672346033
2.379787390362805
2.485290336665293
2.5812509873561686
2.6521151135435055
2.6967268694382662
2.726140281045919
2.743772596890037
2.7556067785073948
2.76218032140387
2.7654426929322704
2.7673064262125764
2.7682381612002214
2.7682381612002214
2.7691698080002287
2.769635598230934
2.769635598230934
2.769635598230934
2.769635598230934
2.769635598230934
2.770101366295698
2.770101366295698
2.770101366295698
2.770101366295698
2.770101366295698
2.770101366295698
2.770101366295698
2.770101366295698
2.770101366295698
2.769635598230934
2.769635598230934
2.7687039956434405
2.9520773210944977
2.595577314890401
2.4484784073825847
2.2993570146997415
2.160477338271106
2.116267054649981
2.211458556818518
2.364848291849624
2.503446954035145
2.607367916433985
2.669977085071526
2.7107835891912924
2.7360443939558423
2.7514537365459293
2.759849408946295
2.764510695263711
2.7668405257468542
2.7682381612002214
2.7687039956434405
2.7691698080002287
2.769635598230934
2.769635598230934
2.769635598230934
2.769635598230934
2.769635598230934
2.769635598230934
2.769635598230934
2.769635598230934
2.769635598230934
2.770101366295698
2.770101366295698
2.770101366295698
2.770101366295698
2.770101366295698
2.770101366295698
2.770101366295698
2.770101366295698
2.7683191074008437
2.76242165363431
2.7619365484231206
2.968506245560292
2.5703870595311535
2.4144285649615465
2.235813602253859
1.9944611319655225
1.8747117657124213
1.9996026397548092
2.2172480760900277
2.41418745628354
2.5582451812905007
2.642234673252399
2.696258042111392
2.728565445685181
2.747253372043703
2.757984294354947
2.7635786106557174
2.7663746033522587
2.767772304710109
2.7687039956434405
2.7691698080002287
2.7691698080002287
2.769635598230934
2.769635598230934
2.769635598230934
2.769635598230934
2.769635598230934
2.769635598230934
2.769635598230934
2.769635598230934
2.769635598230934
2.769635598230934
2.770101366295698
2.770101366295698
2.770101366295698
2.770101366295698
2.7705671121546165
2.7714985370946477
2.7724298727289782
2.7697989278770816
2.763692856344216
3.0
2.6124503920689195
2.4961923057358484
2.277521875141574
1.8741326159513971
1.6067995711402387
1.7370452639676446
2.041210172439018
2.318605192834527
2.5094707982009945
2.618212955822283
2.6850011027407614
2.7234208271800235
2.7449191210645676
2.757051609669822
2.763112535845505
2.7663746033522587
2.767772304710109
2.7687039956434405
2.7691698080002287
2.7691698080002287
2.769635598230934
2.769635598230934
2.769635598230934
2.769635598230934
2.769635598230934
2.769635598230934
2.769635598230934
2.769635598230934
2.769635598230934
2.769635598230934
2.769635598230934
2.770101366295698
2.770101366295698
2.7705671121546165
2.771032835767679
2.7724298727289782
2.774757818971309
2.7766197691903076
2.759121758761111
3.0
2.79549472831707
2.6568164395587135
2.406023405462965
1.8287326592988724
1.3291701867216754
1.4246154700363325
1.8449885727932123
2.2319529537138254
2.4696120987201473
2.6040658569380812
2.6803078799673696
2.720559437005906
2.7441938738072915
2.7565852356089953
2.763112535845505
2.7663746033522587
2.767772304710109
2.7687039956434405
2.7687039956434405
2.7691698080002287
2.7691698080002287
2.7691698080002287
2.7691698080002287
2.7691698080002287
2.769635598230934
2.769635598230934
2.769635598230934
2.769635598230934
2.769635598230934
2.769635598230934
2.769635598230934
2.769635598230934
2.770101366295698
2.7705671121546165
2.7714985370946477
2.7738267080230665
2.7773262728266186
2.7741877224132607
2.7488663099980557
3.0
3.0
2.876568547325371
2.478330935957096
1.4994111740186065
0.823719083128687
1.022354037744519
1.6609895318078014
2.181840594256446
2.459636840874404
2.6087828871638132
2.6811909451573457
2.7214393158766486
2.7451100172865597
2.7575179625973942
2.7635786106557174
2.7663746033522587
2.767772304710109
2.7682381612002214
2.7687039956434405
2.7687039956434405
2.7691698080002287
2.7691698080002287
2.7691698080002287
2.7691698080002287
2.7691698080002287
2.7691698080002287
2.7691698080002287
2.7691698080002287
2.7691698080002287
2.7691698080002287
2.7691698080002287
2.769635598230934
2.769635598230934
2.770101366295698
2.7714985370946477
2.773704096211093
2.771401956324722
2.7648127945400414
2.7493775731441126
3.0
-2.779514754585595
-2.1879837924656362
-0.9911876137130314
0.5229532183819826
1.6370535590098003
2.237863151103045
2.498094278216761
2.621917802975864
2.6889294000727446
2.726734649640142
2.748473885683789
2.7593831622384424
2.7640446638078804
2.7663746033522587
2.7673064262125764
2.767772304710109
2.7682381612002214
2.7682381612002214
2.7682381612002214
2.7687039956434405
2.7687039956434405
2.7687039956434405
2.7687039956434405
2.7687039956434405
2.7687039956434405
2.7687039956434405
2.7687039956434405
2.7687039956434405
2.7687039956434405
2.7687039956434405
2.7691698080002287
2.769635598230934
2.7705671121546165
2.7719642160952596
2.774757818971309
2.7775506077964156
2.754131779977055
-2.7775333209558273
-1.3140539026033848
-0.022196700272567607
0.8847325275488875
1.5266518534641897
2.0332239483961883
2.3690787551762376
2.5529057848673555
2.6512924708550365
2.7051134130951606
2.7359051505676777
2.7544326575898808
2.7617141818485376
2.764510695263711
2.7663746033522587
2.7668405257468542
2.7673064262125764
2.7673064262125764
2.7673064262125764
2.7673064262125764
2.7673064262125764
2.7673064262125764
2.7673064262125764
2.7673064262125764
2.7673064262125764
2.7673064262125764
2.7673064262125764
2.767772304710109
2.767772304710109
2.767772304710109
2.767772304710109
2.767772304710109
2.7682381612002214
2.7687039956434405
2.769635598230934
2.7705671121546165
2.758834803072897
2.74832595921237
-0.9783995309675628
-1.031905846461541
-0.91267520231736
0.29323283255669663
1.2059562186199075
1.770468237622259
2.1237188661409268
2.3716661022546157
2.535037798323528
2.630047808110391
2.682393141921288
2.709697205507461
2.724049498701802
2.7308503518512985
2.73347815251392
2.7347441066768288
2.7348668808526115
2.734479417503963
2.7341536944723805
2.733914037760215
2.733742845234507
2.7335898100282994
2.733411884380036
2.733200000152367
2.732970351301142
2.73274963362224
2.7325598030132183
2.7324115740441433
2.732302124882653
2.732219619381136
2.7321412718550033
2.7320238939334844
2.7318084715097135
2.731935162057412
2.7313269993239855
2.7303765385534895
2.7293573291314566
2.726600348759044
2.720687095818327
2.7087419869056246
)
;

boundaryField
{
    ".*"
    {
        type            zeroGradient;
    }
}


// ************************************************************************* //
