/*--------------------------------*- C++ -*----------------------------------*\
  =========                 |
  \\      /  F ield         | OpenFOAM: The Open Source CFD Toolbox
   \\    /   O peration     | Website:  https://openfoam.org
    \\  /    A nd           | Version:  6
     \\/     M anipulation  |
\*---------------------------------------------------------------------------*/
FoamFile
{
    version     2.0;
    format      ascii;
    class       volScalarField;
    location    "47600.0000007102717";
    object      alphat;
}
// * * * * * * * * * * * * * * * * * * * * * * * * * * * * * * * * * * * * * //

dimensions      [1 -1 -1 0 0 0 0];

internalField   nonuniform List<scalar> 
778
(
0.00104097
0.00111051
0.00110651
0.00115456
0.0011986
0.00123861
0.00127586
0.00131179
0.00134796
0.0013864
0.00142308
0.00145791
0.00149223
0.00152912
0.0015676
0.00073697
0.00105536
0.00106398
0.00103827
0.000995236
0.000937709
0.00088035
0.000827482
0.000779813
0.000737079
0.000699013
0.000664828
0.000633691
0.000604628
0.000576343
0.000546766
0.000522198
0.000472642
0.00152463
0.00300709
0.00263917
0.00304614
0.00334139
0.00365445
0.0039668
0.00425475
0.00448665
0.0046218
0.00470132
0.00466885
0.00443614
0.00385939
0.0028188
0.00171641
0.00163654
0.0015665
0.00131827
0.00224591
0.00311308
0.00362537
0.00364941
0.00288032
0.00246328
0.00217438
0.00195516
0.00178074
0.00163185
0.00150026
0.00137783
0.00125807
0.00115058
0.00105789
0.00119143
0.000599159
0.00193409
0.00419841
0.00311339
0.00445309
0.00497554
0.00541767
0.00581931
0.00617293
0.00647268
0.00670788
0.00693578
0.00717562
0.00739601
0.0075271
0.00743997
0.00681159
0.00498152
0.00192141
0.00166363
0.00355942
0.00496666
0.00563205
0.00512131
0.00135151
0.00117524
0.00103929
0.000932911
0.00084824
0.000779879
0.000724105
0.00067873
0.000643348
0.00070736
0.00083203
0.00131722
0.000681523
0.00232902
0.00565772
0.00297907
0.00500697
0.00578032
0.00619399
0.00649815
0.00672326
0.00689145
0.00702804
0.00722221
0.00755017
0.00802854
0.00862984
0.00923402
0.0095312
0.00894859
0.00667251
0.00191393
0.00443661
0.0065973
0.00769332
0.0079628
0.00679676
0.00153909
0.00139986
0.00129214
0.00120259
0.00112628
0.00105773
0.000993091
0.000928885
0.000859533
0.000803144
0.000832514
0.00142597
0.000750226
0.00271825
0.00748941
0.00300528
0.00475981
0.00594882
0.00630133
0.0064291
0.00643384
0.00636996
0.00631369
0.00639525
0.00671393
0.00729833
0.00812566
0.00908524
0.00996932
0.010531
0.0105257
0.00944793
0.0096149
0.00983496
0.00986479
0.00966325
0.00904398
0.00719661
0.00621632
0.00554505
0.00499911
0.00446428
0.00394642
0.00343979
0.00293369
0.00241358
0.001854
0.00141484
0.00141304
0.00111764
0.000894431
0.00118071
0.00112797
0.00310116
0.00953927
0.00353754
0.00401388
0.00569967
0.00609067
0.00605891
0.00584053
0.00552868
0.00527166
0.00526622
0.00559978
0.00626525
0.00722405
0.00834686
0.00946868
0.010425
0.0110363
0.0111485
0.011037
0.0108407
0.010562
0.0102042
0.00974944
0.00908635
0.00844792
0.00786849
0.00730784
0.00670312
0.00605767
0.0053683
0.00462897
0.00383498
0.00299261
0.00223019
0.00167452
0.00129933
0.00146155
0.00254129
0.00134867
0.00349187
0.0114344
0.00471345
0.0032882
0.00512141
0.00576105
0.00568941
0.00533615
0.00482408
0.00437365
0.00436059
0.00478109
0.00554207
0.00661286
0.00783293
0.0090413
0.0100822
0.0108284
0.0111721
0.0111459
0.0109006
0.0105289
0.0101036
0.0096795
0.00926959
0.00889367
0.00854072
0.00816362
0.00770865
0.00716124
0.00651308
0.00576096
0.00490794
0.00397626
0.00306614
0.00221673
0.00163172
0.00146193
0.00257754
0.00159057
0.0038276
0.0128675
0.00642553
0.00313032
0.00405741
0.00510756
0.00525318
0.00496255
0.00435814
0.00374465
0.00388337
0.00443904
0.0052893
0.00639244
0.00765873
0.00892356
0.0100036
0.0107548
0.0110965
0.0110525
0.0107359
0.0102688
0.00976657
0.00932139
0.00897831
0.00873328
0.00854234
0.0083346
0.00804586
0.00764174
0.00710611
0.0064357
0.00563738
0.00473585
0.00379996
0.0028518
0.0019986
0.00132385
0.00375883
0.00208434
0.00392891
0.0121743
0.00794894
0.00404546
0.00275033
0.0033717
0.00394445
0.00399174
0.00352427
0.00342518
0.00378085
0.00443382
0.0053524
0.00652151
0.00784823
0.00915197
0.0102284
0.0109218
0.0111658
0.0109991
0.01054
0.0099379
0.00934101
0.00886508
0.00856303
0.00841473
0.00834763
0.00826795
0.00810227
0.0078107
0.00737729
0.00680038
0.00608812
0.00526123
0.00435554
0.00333939
0.00198052
0.00160935
0.00579611
0.00235229
0.00384956
0.00981258
0.00820731
0.00555169
0.00366692
0.00284014
0.00269098
0.00281775
0.00305399
0.00343066
0.00396487
0.00469938
0.00569792
0.00695815
0.00835713
0.00967952
0.0106999
0.0112624
0.0113213
0.010944
0.01028
0.0095166
0.00883611
0.00837029
0.00815681
0.00813175
0.0081781
0.00817743
0.00807049
0.00783456
0.00746189
0.00695225
0.00631106
0.00554455
0.00461835
0.00329159
0.00159225
0.00262273
0.00594733
0.00241344
0.00360606
0.00838548
0.00793395
0.00635208
0.00488919
0.0039366
0.00346579
0.00335979
0.00355543
0.00391522
0.00443754
0.00521272
0.00631549
0.00769763
0.0091685
0.0104634
0.0113429
0.0116698
0.0114389
0.0107658
0.00985298
0.00894071
0.00824899
0.00790191
0.00786136
0.00797504
0.00809037
0.00809259
0.00798004
0.0077513
0.00740145
0.00692625
0.00632148
0.005555
0.00442792
0.00264125
0.00166324
0.00330002
0.00603294
0.00241229
0.00328346
0.00755942
0.00765198
0.00672264
0.00571966
0.00496445
0.00451988
0.00436078
0.0044018
0.00461981
0.00509993
0.00596641
0.00724231
0.00877451
0.0102779
0.0114438
0.012044
0.0119923
0.0113527
0.0103141
0.00915893
0.00819635
0.00765211
0.00754093
0.00763449
0.00778637
0.00788724
0.00786032
0.00772981
0.00749748
0.00715527
0.0066918
0.00608389
0.00520982
0.00359898
0.00183228
0.00212494
0.00374711
0.00565234
0.00235219
0.00299374
0.00675942
0.00730406
0.00686606
0.00622306
0.0056826
0.00532321
0.00514815
0.00509738
0.00528465
0.00589498
0.00702845
0.00857422
0.0102347
0.011642
0.0124869
0.0126061
0.0120065
0.0108587
0.00945403
0.00818837
0.00737575
0.00701306
0.00696111
0.00706141
0.00720477
0.00730113
0.00727896
0.00715024
0.00691465
0.00656297
0.00607855
0.00540532
0.00428853
0.00251095
0.00175528
0.00257925
0.00394951
0.00497131
0.00226516
0.00300321
0.00670832
0.00746119
0.0069475
0.00642745
0.00600151
0.00569465
0.00549698
0.00549187
0.00594533
0.00702244
0.0086301
0.0104447
0.0120497
0.0130757
0.0133026
0.0127036
0.0114166
0.00977215
0.00818527
0.00703411
0.00634586
0.00600882
0.00591786
0.00598108
0.00610963
0.00621307
0.00620114
0.00606388
0.0057983
0.00540205
0.00487674
0.00420341
0.00327076
0.00216499
0.00187334
0.00276827
0.00409567
0.00527026
0.00223759
0.00270947
0.00281988
0.00416523
0.00489741
0.00512517
0.00513064
0.0050833
0.0051817
0.00581461
0.00715764
0.00904324
0.0110763
0.0128157
0.0138947
0.0140957
0.0133732
0.011902
0.00996222
0.00811364
0.00666343
0.00567578
0.00509124
0.00480594
0.00470534
0.00471018
0.004762
0.00479434
0.00472432
0.00451825
0.00418355
0.00375245
0.00328683
0.00285041
0.00246308
0.00213138
0.00211081
0.00288901
0.00439147
0.00558145
0.00240324
0.000965143
0.00174092
0.00267209
0.00341934
0.00428759
0.00575892
0.00791896
0.010309
0.0124785
0.0140968
0.0149413
0.0148675
0.0138765
0.0120672
0.00991198
0.00786323
0.00622651
0.00511134
0.0044785
0.00415008
0.00397277
0.00386768
0.00379795
0.00373621
0.00364645
0.00348754
0.00324385
0.00295129
0.00267475
0.00247663
0.00238179
0.00238016
0.00246746
0.0027155
0.00340156
0.00516132
0.00580205
0.0024524
0.00178735
0.00247465
0.00360365
0.0056164
0.00833914
0.0110548
0.0131471
0.0146481
0.015551
0.0157985
0.0152792
0.0138815
0.011816
0.00947568
0.00731661
0.00567422
0.00467765
0.00416309
0.00389521
0.00373809
0.003637
0.00356844
0.00351534
0.00345766
0.00337164
0.0032416
0.00308352
0.00293672
0.00284458
0.00283381
0.00290495
0.00304727
0.00326913
0.00363175
0.00430572
0.0059642
0.0062784
0.0024968
0.00323819
0.00785655
0.00725351
0.006505
0.00826193
0.010995
0.0132894
0.0148266
0.0156265
0.0158141
0.0154915
0.0146184
0.0131511
0.0111547
0.00890354
0.00682302
0.00534796
0.00453145
0.00411242
0.00387625
0.00373267
0.00365292
0.00362492
0.003635
0.00366299
0.00368399
0.00367597
0.00363516
0.0035914
0.00356797
0.00358074
0.003637
0.00373421
0.00386647
0.00403937
0.00428804
0.00469886
0.00544209
0.00580507
0.00238557
0.00309556
0.0059855
0.00774698
0.00990918
0.0109971
0.0121128
0.012756
0.0129022
0.0126447
0.0120512
0.0111515
0.00996189
0.00854404
0.00706735
0.00578896
0.00486499
0.00425302
0.00386391
0.00360717
0.00344264
0.00335936
0.0033535
0.00341679
0.00353165
0.00367062
0.00380024
0.00389021
0.00393639
0.00397467
0.00402543
0.0040992
0.00419977
0.004327
0.00448195
0.00467306
0.0049053
0.0051722
0.00570559
0.00628614
0.00233347
0.00289532
0.0024803
0.00246758
0.00253848
0.00259643
0.00251593
0.00236277
0.00218589
0.00201065
0.00184648
0.00169514
0.00155761
0.00143816
0.00134406
0.00128086
0.00124886
0.00123897
0.00124117
0.00125285
0.00127241
0.00129801
0.00132733
0.00135809
0.00138854
0.00141772
0.00144563
0.00147315
0.00150137
0.00153156
0.00156558
0.00160462
0.00164922
0.00169955
0.00175602
0.00182048
0.00189991
0.00200944
0.0021569
0.002332
0.00223741
)
;

boundaryField
{
    floor
    {
        type            compressible::alphatWallFunction;
        Prt             0.85;
        value           nonuniform List<scalar> 
36
(
0.000219919
0.000104504
0.000149935
0.00015114
0.000147542
0.000141494
0.000133362
0.000125196
0.000117613
0.000110727
0.000104511
9.89381e-05
9.39018e-05
8.92871e-05
8.4955e-05
8.07142e-05
7.62523e-05
7.25234e-05
6.4935e-05
6.49342e-05
8.41379e-05
9.6366e-05
0.000106429
0.000127208
0.00016734
0.000160058
0.000219917
0.000239725
0.000229117
0.000219768
0.000104502
0.000219765
0.000186236
0.000266703
0.000232713
0.000265725
)
;
    }
    ceiling
    {
        type            compressible::alphatWallFunction;
        Prt             0.85;
        value           nonuniform List<scalar> 
43
(
0.00039125
0.000338854
0.00033724
0.000346264
0.000353628
0.000343442
0.000323933
0.000301219
0.000278512
0.00025704
0.000237061
0.000218742
0.000202694
0.000189953
0.000181342
0.000176955
0.000175598
0.000175895
0.000177487
0.000180162
0.000183663
0.000187673
0.000191877
0.000196033
0.000200009
0.000203801
0.000207529
0.000211341
0.000215403
0.000219968
0.000225193
0.000231147
0.000237847
0.00024533
0.000253808
0.000264124
0.000278261
0.000297253
0.000319765
0.00030785
0.000368218
0.000382096
0.000248612
)
;
    }
    sWall
    {
        type            compressible::alphatWallFunction;
        Prt             0.85;
        value           nonuniform List<scalar> 9(0.000507615 0.000477911 0.000438241 0.00040228 0.000403452 0.000366643 0.000432008 0.000414373 0.000389499);
    }
    nWall
    {
        type            compressible::alphatWallFunction;
        Prt             0.85;
        value           nonuniform List<scalar> 
14
(
0.000159611
0.000189922
0.000222496
0.000329762
0.00032955
0.000321809
0.000310671
0.000307323
0.000328597
0.000334735
0.000340365
0.000326135
0.000319404
0.00030717
)
;
    }
    sideWalls
    {
        type            empty;
    }
    glass1
    {
        type            compressible::alphatWallFunction;
        Prt             0.85;
        value           nonuniform List<scalar> 9(0.000143925 0.00020913 0.000262685 0.00031329 0.000362359 0.000409977 0.000457981 0.000498837 0.000511213);
    }
    glass2
    {
        type            compressible::alphatWallFunction;
        Prt             0.85;
        value           nonuniform List<scalar> 2(0.000285181 0.000319653);
    }
    sun
    {
        type            compressible::alphatWallFunction;
        Prt             0.85;
        value           nonuniform List<scalar> 
14
(
0.000147959
0.000157641
0.000157084
0.000163753
0.000169838
0.000175345
0.000180454
0.000185365
0.000190294
0.000195517
0.000200483
0.000205187
0.000209809
0.000214764
)
;
    }
    Table_master
    {
        type            compressible::alphatWallFunction;
        Prt             0.85;
        value           nonuniform List<scalar> 9(0.000191034 0.000166864 0.000147939 0.000132931 0.000120841 0.000110976 0.00010285 9.6184e-05 9.09483e-05);
    }
    Table_slave
    {
        type            compressible::alphatWallFunction;
        Prt             0.85;
        value           nonuniform List<scalar> 9(0.000216371 0.000197604 0.000182939 0.000170644 0.000160082 0.000150525 0.000141447 0.000132362 0.000122464);
    }
    inlet
    {
        type            fixedValue;
        value           uniform 1.94e-05;
    }
    outlet
    {
        type            zeroGradient;
    }
}


// ************************************************************************* //
