/*--------------------------------*- C++ -*----------------------------------*\
  =========                 |
  \\      /  F ield         | OpenFOAM: The Open Source CFD Toolbox
   \\    /   O peration     | Website:  https://openfoam.org
    \\  /    A nd           | Version:  6
     \\/     M anipulation  |
\*---------------------------------------------------------------------------*/
FoamFile
{
    version     2.0;
    format      ascii;
    class       volScalarField;
    location    "47600.0000007102717";
    object      nut;
}
// * * * * * * * * * * * * * * * * * * * * * * * * * * * * * * * * * * * * * //

dimensions      [0 2 -1 0 0 0 0];

internalField   nonuniform List<scalar> 
778
(
0.000894295
0.000953033
0.000949554
0.000990766
0.00102854
0.00106286
0.00109481
0.00112562
0.00115665
0.00118961
0.00122106
0.00125091
0.00128032
0.00131193
0.0013449
0.000632415
0.000905245
0.000912616
0.000890568
0.000853657
0.000804323
0.000755134
0.000709797
0.000668918
0.000632272
0.000599629
0.000570314
0.000543612
0.000518689
0.000494433
0.00046907
0.000448005
0.000405533
0.00131076
0.00258099
0.00226496
0.00261422
0.00286762
0.00313629
0.00340435
0.00365145
0.00385042
0.00396634
0.00403446
0.00400641
0.00380647
0.0033113
0.00241827
0.00147242
0.00140385
0.00134375
0.00113074
0.00192631
0.00267
0.00310935
0.00312997
0.00247036
0.00211269
0.00186492
0.00167691
0.00152732
0.00139963
0.00128677
0.00118178
0.00107907
0.000986902
0.000907428
0.00102203
0.000514057
0.00166401
0.00360414
0.00267224
0.0038222
0.00427078
0.00465044
0.00499534
0.00529899
0.00555634
0.0057582
0.00595366
0.00615914
0.00634766
0.00645929
0.00638356
0.00584363
0.00427317
0.00164808
0.00142685
0.00305274
0.00425964
0.0048303
0.00439227
0.00115912
0.00100795
0.000891355
0.000800122
0.000727505
0.000668877
0.000621044
0.00058213
0.000551789
0.0006067
0.000713653
0.00112987
0.00058471
0.00200523
0.00485798
0.00255727
0.00429822
0.00496246
0.00531798
0.0055795
0.0057731
0.00591775
0.00603512
0.0062017
0.00648279
0.00689253
0.00740727
0.0079241
0.00817747
0.00767636
0.00572321
0.00164156
0.00380509
0.00565814
0.00659813
0.00682928
0.00582925
0.00132001
0.0012006
0.00110821
0.00103141
0.000965959
0.00090717
0.000851733
0.000796666
0.000737186
0.000688838
0.000714051
0.00122314
0.00064365
0.00234195
0.00643248
0.00258011
0.0040866
0.00510798
0.00541127
0.0055216
0.00552624
0.00547181
0.00542372
0.00549371
0.00576692
0.00626768
0.00697622
0.00779766
0.00855407
0.00903402
0.00902828
0.00810324
0.00824624
0.00843493
0.00846057
0.0082878
0.00775674
0.00617235
0.00533161
0.00475589
0.00428766
0.00382895
0.00338479
0.00295025
0.00251617
0.00207008
0.00159015
0.00121351
0.00121203
0.00095882
0.000767358
0.00101301
0.000968071
0.00267357
0.00819556
0.00303751
0.00344657
0.00489472
0.00523124
0.00520474
0.00501787
0.00475056
0.00453011
0.0045255
0.00481166
0.00538215
0.00620351
0.00716484
0.00812496
0.0089432
0.00946625
0.00956178
0.00946591
0.00929756
0.00905871
0.00875199
0.00836206
0.00779341
0.00724587
0.00674891
0.00626804
0.00574937
0.00519575
0.00460445
0.00397031
0.00328929
0.00256678
0.00191286
0.00143631
0.00111461
0.00125382
0.0021802
0.00115755
0.00301209
0.00982706
0.00404794
0.00282375
0.00439857
0.00494869
0.00488795
0.00458522
0.00414588
0.00375928
0.00374827
0.00410934
0.004762
0.00567946
0.00672412
0.00775833
0.0086491
0.00928771
0.00958185
0.00955931
0.00934906
0.00903055
0.00866597
0.00830241
0.00795092
0.00762854
0.00732581
0.00700235
0.00661208
0.00614252
0.00558654
0.00494138
0.00420969
0.00341054
0.00262991
0.00190139
0.00139969
0.0012541
0.00221123
0.00136513
0.00330344
0.0110642
0.00552016
0.00268854
0.00348503
0.00438764
0.00451341
0.00426438
0.00374563
0.00321899
0.00333856
0.00381589
0.00454524
0.00549043
0.00657458
0.00765702
0.00858123
0.00922418
0.00951679
0.00947921
0.00920801
0.00880777
0.00837733
0.00799567
0.00770148
0.00749134
0.00732755
0.00714932
0.0069016
0.00655491
0.0060954
0.0055203
0.00483548
0.00406217
0.0032594
0.00244614
0.00171438
0.00113563
0.00322483
0.00179003
0.00339327
0.0104839
0.00683645
0.00347635
0.00236276
0.00289668
0.00338914
0.00343024
0.0030291
0.00294461
0.00325074
0.00381164
0.00459944
0.00560091
0.00673653
0.0078521
0.00877318
0.0093668
0.00957601
0.00943348
0.00904031
0.00852444
0.00801279
0.00760472
0.00734569
0.00721847
0.00716087
0.00709245
0.00695025
0.00670007
0.00632821
0.00583328
0.00522226
0.00451292
0.00373604
0.00286443
0.00169888
0.0013806
0.0049736
0.00202126
0.00332465
0.00845873
0.00706626
0.00477512
0.00315216
0.00244089
0.00231263
0.00242177
0.00262542
0.0029499
0.0034094
0.00403995
0.00489577
0.0059747
0.00717172
0.00830308
0.00917635
0.00965821
0.00970926
0.00938655
0.00881789
0.00816366
0.00758024
0.00718076
0.00699762
0.00697606
0.00701574
0.00701505
0.00692321
0.00672072
0.00640095
0.0059637
0.00541362
0.00475606
0.00396155
0.0028235
0.00136589
0.00225066
0.00510625
0.00207384
0.00311446
0.0072319
0.0068354
0.00546787
0.00420611
0.0033855
0.00298023
0.00288917
0.0030579
0.00336766
0.00381629
0.00448074
0.0054248
0.00660722
0.00786529
0.0089732
0.00972634
0.0100071
0.00981032
0.00923434
0.00845239
0.00767035
0.00707715
0.00677938
0.0067445
0.00684189
0.0069407
0.00694246
0.00684579
0.00664946
0.00634926
0.00594153
0.00542268
0.00476514
0.0037983
0.00226574
0.001427
0.00283258
0.00518069
0.00207295
0.0028362
0.0065215
0.00659562
0.00579054
0.00492412
0.00427262
0.00388946
0.00375254
0.00378789
0.00397476
0.00438555
0.00512653
0.0062174
0.00752733
0.0088131
0.00981112
0.0103263
0.0102837
0.00973721
0.00884798
0.00785796
0.00703249
0.00656556
0.00647003
0.00655012
0.00668024
0.00676661
0.00674337
0.00663128
0.00643187
0.0061382
0.00574054
0.00521899
0.00446914
0.00308733
0.00157193
0.0018236
0.00321723
0.0048549
0.00202145
0.00258656
0.00583376
0.00629879
0.00591749
0.005361
0.00489402
0.0045838
0.00443265
0.00438766
0.00454589
0.00506594
0.0060336
0.0073541
0.00877357
0.00997805
0.0107031
0.010808
0.0102969
0.00931507
0.00811156
0.00702625
0.00632904
0.00601766
0.00597284
0.00605867
0.00618146
0.00626395
0.00624478
0.00613424
0.00593203
0.00563025
0.00521461
0.00463703
0.00367896
0.0021541
0.00150606
0.00221398
0.0033919
0.00427104
0.00194688
0.00259425
0.00579003
0.00643544
0.00598957
0.00553913
0.00517051
0.00490488
0.0047326
0.0047239
0.0051075
0.00602509
0.00739715
0.00894776
0.0103218
0.0112031
0.011402
0.0108932
0.00979344
0.00838501
0.00702436
0.0060366
0.00544579
0.00515631
0.00507801
0.00513203
0.00524212
0.00533069
0.00532032
0.00520245
0.00497452
0.00463451
0.0041838
0.00360613
0.00280601
0.00185743
0.00160747
0.00237633
0.00351759
0.0045281
0.00192323
0.00234164
0.00243552
0.00359193
0.00421887
0.00441212
0.00441442
0.00437093
0.00445009
0.00498582
0.00612932
0.00773812
0.00947613
0.0109674
0.0118974
0.0120774
0.0114658
0.0102097
0.00854895
0.00696378
0.00571933
0.00487152
0.00436961
0.00412453
0.00403798
0.00404193
0.0040862
0.00411379
0.00405359
0.00387669
0.00358946
0.00321955
0.00282007
0.00244564
0.00211335
0.00182881
0.00181136
0.00247988
0.00377137
0.00479488
0.00206518
0.000807719
0.00146588
0.00226284
0.00290442
0.00364614
0.00490037
0.00674392
0.00878886
0.0106516
0.0120481
0.0127852
0.0127352
0.0118966
0.0103526
0.00850695
0.00674992
0.00534527
0.00438791
0.00384453
0.00356245
0.0034101
0.00331973
0.00325972
0.00320656
0.00312937
0.00299289
0.0027837
0.00253263
0.00229534
0.00212538
0.00204405
0.00204272
0.00211771
0.00233073
0.00292004
0.00443236
0.00498384
0.00210723
0.00149728
0.00207885
0.00303649
0.00474625
0.00706541
0.0093889
0.0111912
0.0124945
0.0132877
0.0135188
0.0130906
0.0119041
0.0101391
0.00813406
0.00628191
0.00487215
0.00401651
0.00357466
0.0033446
0.00320962
0.00312273
0.00306376
0.00301803
0.00296835
0.00289436
0.00278263
0.00264688
0.00252088
0.00244185
0.00243272
0.00249394
0.00261626
0.00280686
0.00311833
0.0036973
0.00512236
0.00539315
0.00214544
0.00275719
0.00666561
0.00612553
0.00548332
0.00698209
0.00932311
0.0113025
0.0126408
0.0133481
0.0135281
0.0132678
0.012532
0.0112825
0.0095747
0.00764483
0.00585943
0.00459303
0.0038919
0.00353207
0.00332926
0.00320595
0.00313745
0.00311336
0.00312192
0.00314583
0.00316372
0.00315667
0.00312152
0.00308388
0.00306378
0.00307484
0.00312333
0.00320704
0.00332089
0.00346965
0.00368351
0.00403668
0.00467552
0.00498776
0.00205018
0.002639
0.00510055
0.00658871
0.008413
0.00934932
0.0103227
0.0108947
0.0110385
0.0108319
0.0103331
0.00956803
0.00855145
0.00733677
0.00606998
0.00497256
0.00417914
0.00365358
0.0033194
0.00309892
0.00295764
0.00288614
0.00288112
0.00293546
0.00303406
0.00315333
0.00326453
0.00334168
0.00338122
0.00341404
0.00345765
0.0035211
0.00360764
0.00371716
0.00385054
0.00401503
0.00421489
0.00444454
0.00490314
0.00540217
0.00200584
0.00247427
0.00211958
0.00210915
0.00217041
0.0022211
0.0021547
0.00202568
0.00187553
0.00172612
0.00158575
0.00145611
0.00133817
0.00123566
0.00115487
0.0011006
0.00107312
0.00106465
0.00106658
0.00107664
0.00109348
0.00111549
0.00114069
0.00116711
0.00119325
0.00121829
0.00124224
0.00126585
0.00129007
0.001316
0.00134525
0.00137882
0.0014172
0.00146052
0.00150914
0.00156466
0.00163305
0.00172734
0.00185421
0.00200482
0.0019237
)
;

boundaryField
{
    floor
    {
        type            nutkWallFunction;
        Cmu             0.09;
        kappa           0.41;
        E               9.8;
        value           nonuniform List<scalar> 
36
(
0.00016058
7.63878e-05
0.000109507
0.000110384
0.000107759
0.000103348
9.74167e-05
9.14601e-05
8.5929e-05
8.09056e-05
7.63709e-05
7.23048e-05
6.86302e-05
6.5263e-05
6.21017e-05
5.90069e-05
5.57504e-05
5.30291e-05
4.74917e-05
4.74917e-05
6.15116e-05
7.04372e-05
7.7782e-05
9.29437e-05
0.000122229
0.000116948
0.00016058
0.000175012
0.000167269
0.000160448
7.63877e-05
0.000160448
0.000135986
0.000194669
0.000169869
0.000193943
)
;
    }
    ceiling
    {
        type            nutkWallFunction;
        Cmu             0.09;
        kappa           0.41;
        E               9.8;
        value           nonuniform List<scalar> 
43
(
0.00028438
0.000246314
0.000245187
0.000251814
0.000257288
0.00025014
0.000236164
0.000219768
0.000203306
0.000187696
0.000173147
0.00015979
0.000148081
0.000138781
0.000132495
0.000129293
0.000128304
0.000128524
0.000129691
0.000131647
0.000134207
0.000137136
0.000140206
0.000143239
0.00014614
0.000148906
0.000151625
0.000154407
0.000157374
0.000160709
0.000164528
0.000168883
0.000173785
0.000179261
0.000185466
0.000193017
0.00020336
0.00021725
0.000233709
0.000225023
0.000270418
0.00028045
0.0001776
)
;
    }
    sWall
    {
        type            nutkWallFunction;
        Cmu             0.09;
        kappa           0.41;
        E               9.8;
        value           nonuniform List<scalar> 9(0.000373889 0.000352084 0.000322984 0.000296627 0.000297439 0.000270508 0.000314361 0.000301916 0.000284481);
    }
    nWall
    {
        type            nutkWallFunction;
        Cmu             0.09;
        kappa           0.41;
        E               9.8;
        value           nonuniform List<scalar> 
14
(
0.000116956
0.000139104
0.000162889
0.000241448
0.000241303
0.000235662
0.000227544
0.000225102
0.00024061
0.000245077
0.000249197
0.000238832
0.000233956
0.000225057
)
;
    }
    sideWalls
    {
        type            empty;
    }
    glass1
    {
        type            nutkWallFunction;
        Cmu             0.09;
        kappa           0.41;
        E               9.8;
        value           nonuniform List<scalar> 9(0.000108246 0.00015688 0.000196734 0.000234346 0.000270788 0.000306136 0.000341749 0.000372069 0.000381371);
    }
    glass2
    {
        type            nutkWallFunction;
        Cmu             0.09;
        kappa           0.41;
        E               9.8;
        value           nonuniform List<scalar> 2(0.000210488 0.000235877);
    }
    sun
    {
        type            nutkWallFunction;
        Cmu             0.09;
        kappa           0.41;
        E               9.8;
        value           nonuniform List<scalar> 
14
(
0.000108205
0.000115177
0.000114765
0.00011963
0.000124069
0.000128086
0.000131812
0.000135393
0.000138988
0.000142796
0.000146417
0.000149846
0.000153214
0.000156824
)
;
    }
    Table_master
    {
        type            nutkWallFunction;
        Cmu             0.09;
        kappa           0.41;
        E               9.8;
        value           nonuniform List<scalar> 9(0.000139266 0.000121646 0.00010785 9.69092e-05 8.80959e-05 8.09043e-05 7.49808e-05 7.01212e-05 6.63048e-05);
    }
    Table_slave
    {
        type            nutkWallFunction;
        Cmu             0.09;
        kappa           0.41;
        E               9.8;
        value           nonuniform List<scalar> 9(0.000157734 0.000144053 0.000133362 0.000124399 0.0001167 0.000109733 0.000103115 9.64918e-05 8.92767e-05);
    }
    inlet
    {
        type            calculated;
        value           uniform 0.000167705;
    }
    outlet
    {
        type            calculated;
        value           nonuniform List<scalar> 2(0.00275719 0.00666561);
    }
}


// ************************************************************************* //
