/*--------------------------------*- C++ -*----------------------------------*\
  =========                 |
  \\      /  F ield         | OpenFOAM: The Open Source CFD Toolbox
   \\    /   O peration     | Website:  https://openfoam.org
    \\  /    A nd           | Version:  6
     \\/     M anipulation  |
\*---------------------------------------------------------------------------*/
FoamFile
{
    version     2.0;
    format      ascii;
    class       volScalarField;
    location    "47600.0000007102717";
    object      T;
}
// * * * * * * * * * * * * * * * * * * * * * * * * * * * * * * * * * * * * * //

dimensions      [0 0 0 1 0 0 0];

internalField   nonuniform List<scalar> 
778
(
302.565
302.246
302.23
302.225
302.221
302.216
302.212
302.207
302.202
302.198
302.192
302.184
302.175
302.164
302.154
302.223
302.094
302.086
302.085
302.087
302.091
302.095
302.1
302.105
302.11
302.115
302.12
302.125
302.13
302.135
302.142
302.15
302.182
302.778
302.277
302.245
302.244
302.245
302.245
302.245
302.243
302.239
302.234
302.225
302.211
302.192
302.166
302.138
302.119
302.105
302.101
302.082
302.063
302.056
302.053
302.053
302.054
302.056
302.057
302.059
302.061
302.063
302.065
302.068
302.072
302.079
302.09
302.106
302.158
302.994
302.324
302.272
302.278
302.289
302.299
302.307
302.313
302.315
302.313
302.304
302.284
302.254
302.212
302.167
302.127
302.095
302.075
302.048
302.041
302.039
302.039
302.04
302.041
302.042
302.044
302.045
302.046
302.047
302.048
302.05
302.052
302.057
302.067
302.084
302.145
303.204
302.385
302.303
302.315
302.336
302.358
302.378
302.395
302.407
302.411
302.403
302.378
302.335
302.274
302.207
302.146
302.097
302.062
302.047
302.036
302.032
302.032
302.033
302.034
302.035
302.035
302.036
302.036
302.036
302.037
302.037
302.037
302.037
302.043
302.053
302.071
302.137
303.405
302.459
302.335
302.349
302.38
302.414
302.448
302.479
302.503
302.517
302.513
302.484
302.426
302.341
302.248
302.164
302.099
302.057
302.035
302.028
302.026
302.028
302.031
302.034
302.036
302.037
302.038
302.039
302.039
302.039
302.039
302.038
302.038
302.039
302.045
302.061
302.114
302.125
302.138
302.236
303.594
302.544
302.372
302.377
302.415
302.458
302.503
302.547
302.587
302.613
302.617
302.587
302.512
302.4
302.28
302.174
302.095
302.05
302.028
302.021
302.022
302.027
302.032
302.036
302.04
302.042
302.043
302.043
302.043
302.043
302.042
302.041
302.04
302.039
302.042
302.052
302.085
302.098
302.112
302.248
303.757
302.639
302.42
302.401
302.439
302.485
302.535
302.585
302.635
302.675
302.692
302.664
302.575
302.436
302.292
302.172
302.087
302.038
302.017
302.014
302.019
302.028
302.036
302.042
302.046
302.048
302.049
302.049
302.048
302.047
302.045
302.044
302.042
302.04
302.04
302.047
302.067
302.079
302.096
302.229
303.91
302.783
302.516
302.436
302.457
302.499
302.545
302.592
302.642
302.701
302.732
302.7
302.597
302.445
302.285
302.154
302.065
302.018
302.003
302.007
302.019
302.033
302.044
302.051
302.055
302.057
302.057
302.055
302.053
302.051
302.049
302.046
302.043
302.041
302.04
302.043
302.055
302.067
302.107
302.411
304.118
303.232
302.843
302.588
302.504
302.516
302.552
302.593
302.65
302.719
302.754
302.712
302.589
302.417
302.246
302.112
302.028
301.992
301.989
302.004
302.024
302.042
302.055
302.063
302.066
302.066
302.064
302.061
302.058
302.055
302.051
302.048
302.045
302.042
302.041
302.042
302.05
302.073
302.155
302.571
304.103
303.535
303.162
302.862
302.686
302.617
302.609
302.634
302.703
302.773
302.786
302.707
302.546
302.349
302.171
302.045
301.979
301.963
301.978
302.007
302.036
302.058
302.071
302.076
302.076
302.074
302.07
302.065
302.061
302.057
302.052
302.049
302.045
302.042
302.041
302.043
302.059
302.165
302.32
302.57
304.107
303.67
303.355
303.095
302.915
302.816
302.778
302.787
302.836
302.865
302.815
302.665
302.45
302.231
302.06
301.96
301.926
301.94
301.979
302.022
302.057
302.079
302.088
302.089
302.085
302.079
302.073
302.067
302.062
302.057
302.053
302.049
302.045
302.043
302.042
302.048
302.096
302.234
302.368
302.576
304.139
303.757
303.493
303.282
303.128
303.033
302.991
302.99
302.994
302.938
302.78
302.536
302.272
302.054
301.919
301.868
301.883
301.935
301.997
302.051
302.087
302.104
302.105
302.098
302.09
302.081
302.074
302.067
302.062
302.057
302.053
302.049
302.045
302.043
302.045
302.069
302.169
302.31
302.426
302.592
304.204
303.876
303.634
303.45
303.319
303.233
303.186
303.158
303.071
302.872
302.577
302.256
301.99
301.826
301.769
301.795
301.87
301.96
302.04
302.096
302.123
302.127
302.118
302.106
302.094
302.084
302.076
302.069
302.063
302.058
302.054
302.05
302.047
302.047
302.054
302.101
302.23
302.383
302.496
302.619
304.14
303.889
303.681
303.539
303.424
303.333
303.256
303.126
302.85
302.468
302.081
301.784
301.624
301.595
301.66
301.779
301.91
302.027
302.107
302.149
302.156
302.147
302.133
302.118
302.104
302.092
302.082
302.074
302.068
302.063
302.059
302.057
302.055
302.057
302.068
302.115
302.236
302.39
302.504
302.62
304.28
304.088
303.618
303.297
303.094
302.929
302.737
302.367
301.894
301.495
301.265
301.214
301.301
301.468
301.666
301.86
302.017
302.13
302.181
302.194
302.187
302.174
302.158
302.142
302.127
302.112
302.1
302.091
302.084
302.08
302.078
302.078
302.081
302.086
302.097
302.129
302.217
302.362
302.46
302.551
294.644
296.448
298.147
299.051
299.397
299.582
299.828
300.153
300.524
300.902
301.262
301.577
301.835
302.044
302.163
302.222
302.241
302.239
302.23
302.219
302.205
302.191
302.175
302.159
302.145
302.134
302.127
302.125
302.128
302.136
302.145
302.155
302.165
302.183
302.231
302.345
302.42
302.516
294.924
295.752
296.652
297.516
298.287
299.007
299.687
300.299
300.821
301.258
301.634
301.911
302.097
302.215
302.274
302.296
302.301
302.299
302.295
302.289
302.28
302.269
302.255
302.239
302.224
302.213
302.207
302.209
302.217
302.232
302.249
302.265
302.278
302.291
302.313
302.368
302.421
302.517
299.759
298.686
297.306
296.759
297.517
298.52
299.419
300.151
300.723
301.163
301.52
301.807
302.031
302.187
302.283
302.334
302.357
302.366
302.371
302.374
302.375
302.374
302.37
302.361
302.349
302.334
302.32
302.308
302.302
302.304
302.314
302.331
302.353
302.377
302.4
302.42
302.441
302.463
302.487
302.558
300.121
299.995
299.41
298.89
299.296
300.016
300.676
301.193
301.576
301.854
302.056
302.202
302.301
302.363
302.398
302.415
302.426
302.434
302.442
302.449
302.454
302.455
302.452
302.444
302.432
302.419
302.405
302.395
302.389
302.39
302.397
302.41
302.428
302.45
302.473
302.495
302.517
302.533
302.54
302.615
300.841
300.84
300.902
300.993
301.149
301.492
301.813
302.054
302.219
302.328
302.398
302.443
302.469
302.484
302.493
302.5
302.508
302.516
302.525
302.532
302.537
302.537
302.533
302.526
302.517
302.507
302.499
302.493
302.491
302.493
302.5
302.511
302.526
302.545
302.567
302.592
302.615
302.634
302.646
302.676
)
;

boundaryField
{
    floor
    {
        type            wallHeatTransfer;
        Tinf            uniform 305.2;
        alphaWall       uniform 0.36;
        value           nonuniform List<scalar> 
36
(
302.544
302.868
302.622
302.613
302.621
302.639
302.665
302.693
302.722
302.751
302.779
302.806
302.832
302.858
302.884
302.91
302.94
302.968
303.04
303.04
302.909
302.841
302.792
302.711
302.619
302.717
302.544
302.487
302.488
302.497
302.868
302.497
302.535
302.417
302.434
302.394
)
;
    }
    ceiling
    {
        type            wallHeatTransfer;
        Tinf            uniform 303.2;
        alphaWall       uniform 0.36;
        value           nonuniform List<scalar> 
43
(
301.029
301.052
301.109
301.187
301.327
301.644
301.943
302.167
302.323
302.427
302.495
302.54
302.569
302.587
302.598
302.606
302.613
302.62
302.627
302.632
302.634
302.633
302.628
302.62
302.611
302.601
302.593
302.586
302.583
302.584
302.588
302.595
302.607
302.621
302.639
302.659
302.677
302.691
302.699
302.727
304.19
304.016
295.884
)
;
    }
    sWall
    {
        type            wallHeatTransfer;
        Tinf            uniform 315.2;
        alphaWall       uniform 0.54;
        value           nonuniform List<scalar> 9(305.123 305.181 305.292 305.436 305.376 305.601 301.389 301.769 302.494);
    }
    nWall
    {
        type            wallHeatTransfer;
        Tinf            uniform 308.2;
        alphaWall       uniform 0.54;
        value           nonuniform List<scalar> 
14
(
303.582
303.44
303.296
303.312
303.318
303.347
303.391
303.398
303.297
303.256
303.248
303.309
303.371
303.447
)
;
    }
    sideWalls
    {
        type            empty;
    }
    glass1
    {
        type            wallHeatTransfer;
        Tinf            uniform 315.2;
        alphaWall       uniform 4.3;
        value           nonuniform List<scalar> 9(311.626 310.812 310.3 309.912 309.605 309.359 309.142 308.996 309.046);
    }
    glass2
    {
        type            wallHeatTransfer;
        Tinf            uniform 308.2;
        alphaWall       uniform 4.3;
        value           nonuniform List<scalar> 2(305.771 305.693);
    }
    sun
    {
        type            wallHeatTransfer;
        Tinf            uniform 305.2;
        alphaWall       uniform 0.36;
        value           nonuniform List<scalar> 
14
(
303.017
302.731
302.719
302.7
302.684
302.669
302.656
302.643
302.631
302.618
302.605
302.591
302.576
302.56
)
;
    }
    Table_master
    {
        type            zeroGradient;
    }
    Table_slave
    {
        type            zeroGradient;
    }
    inlet
    {
        type            fixedValue;
        value           uniform 293.15;
    }
    outlet
    {
        type            zeroGradient;
    }
}


// ************************************************************************* //
