/*--------------------------------*- C++ -*----------------------------------*\
  =========                 |
  \\      /  F ield         | OpenFOAM: The Open Source CFD Toolbox
   \\    /   O peration     | Website:  https://openfoam.org
    \\  /    A nd           | Version:  6
     \\/     M anipulation  |
\*---------------------------------------------------------------------------*/
FoamFile
{
    version     2.0;
    format      ascii;
    class       volScalarField;
    location    "670";
    object      alphat;
}
// * * * * * * * * * * * * * * * * * * * * * * * * * * * * * * * * * * * * * //

dimensions      [1 -1 -1 0 0 0 0];

internalField   nonuniform List<scalar> 
458
(
0.00124483
0.00135611
0.00138688
0.00145326
0.00151441
0.00157231
0.00163025
0.00168906
0.00173714
0.00176735
0.00177075
0.00173853
0.00165962
0.00149241
0.00113254
0.000559402
0.000655794
0.000743609
0.000775469
0.000763368
0.000714292
0.000660009
0.000611449
0.000569399
0.000532876
0.000500987
0.000473092
0.00044836
0.000425837
0.000404476
0.000383026
0.000370237
0.000340221
0.00167716
0.00377802
0.00348478
0.00399265
0.00449933
0.00502052
0.00548814
0.00585013
0.00622205
0.00657022
0.00684945
0.00701884
0.00703413
0.00678835
0.00551586
0.00149521
0.00124051
0.00101196
0.000554776
0.00131708
0.0019199
0.00238666
0.00253426
0.00184667
0.00155873
0.00136279
0.00121811
0.00110734
0.00101944
0.000943748
0.000872666
0.000801681
0.000738211
0.000684977
0.000837505
0.000447035
0.00203764
0.00507777
0.00419138
0.00510888
0.00549507
0.00576646
0.00597527
0.00616848
0.00643729
0.00676397
0.00712079
0.00746996
0.00774464
0.00783932
0.00738559
0.00601975
0.00456154
0.00119559
0.000854043
0.00147412
0.00214576
0.00281411
0.00300526
0.000960175
0.000840569
0.000741051
0.000660442
0.000595382
0.000542662
0.000499806
0.000465146
0.000438188
0.000485535
0.000562249
0.000982826
0.000528226
0.0023844
0.00648409
0.00407787
0.00529264
0.00550395
0.00548331
0.00546453
0.00555772
0.0057768
0.00610057
0.00651164
0.00696928
0.00736823
0.00761722
0.00755906
0.0071679
0.00615192
0.00337752
0.00137714
0.00175211
0.00240837
0.00321284
0.00391081
0.00394591
0.00108164
0.0009914
0.000929896
0.000884476
0.000846067
0.000807918
0.000771703
0.000733444
0.000688735
0.000648747
0.000639281
0.00117183
0.000608379
0.00273839
0.00837515
0.00427738
0.00502441
0.00532628
0.00514657
0.00500068
0.00508502
0.00531619
0.00565345
0.0060973
0.00659964
0.00699017
0.00718294
0.00717633
0.00703868
0.00663283
0.00548485
0.00496851
0.00500429
0.00529589
0.00564364
0.00585739
0.00576177
0.00491606
0.00448077
0.00424063
0.0040686
0.00389466
0.00367052
0.00328974
0.0027996
0.00224229
0.00170562
0.00127938
0.00119184
0.00103424
0.000813151
0.000860649
0.000935491
0.00311718
0.0105041
0.00585646
0.00465305
0.00507011
0.0050606
0.00487318
0.00494343
0.00517892
0.00551677
0.00596762
0.00644943
0.00681137
0.00692484
0.00681294
0.00665501
0.00658401
0.00648892
0.00668251
0.00702048
0.0072581
0.00730111
0.00714212
0.00680841
0.00634157
0.0059619
0.00566607
0.00540536
0.00514921
0.00487712
0.00452564
0.00404416
0.00343558
0.00274777
0.00211148
0.0015311
0.00125809
0.00109705
0.00138119
0.000970418
0.00348972
0.012108
0.00873227
0.0057191
0.00497814
0.00505017
0.00511248
0.00514834
0.0052823
0.00558121
0.00602565
0.00650368
0.00683541
0.00686945
0.00665848
0.00650711
0.00675678
0.00730931
0.00787159
0.00818957
0.0081911
0.00791984
0.00745961
0.00689886
0.00633948
0.00588848
0.00554637
0.0052687
0.00502561
0.00480726
0.00460874
0.00434948
0.00392398
0.00335589
0.00276596
0.00219926
0.00182926
0.00167541
0.00159679
0.00115316
0.00357925
0.0112175
0.00953109
0.00800458
0.00683699
0.00632025
0.00583068
0.0055002
0.00549751
0.00578433
0.00624469
0.00671684
0.00699505
0.00692704
0.00666916
0.00673393
0.00744679
0.00803057
0.00833513
0.00832221
0.00799331
0.00742326
0.00672095
0.00601157
0.00542086
0.00500575
0.00472525
0.00452355
0.00437405
0.00427309
0.00422786
0.00422935
0.00411626
0.00377897
0.00344997
0.00326632
0.00334554
0.0035312
0.00419399
0.00178512
0.00350501
0.00423047
0.00467544
0.00492506
0.00496269
0.00488971
0.00489449
0.00510503
0.00552841
0.00606673
0.00661545
0.00704454
0.00717829
0.00692664
0.00685831
0.00721962
0.00763712
0.00778021
0.00767714
0.00731577
0.00670895
0.00595829
0.00520743
0.00458987
0.00416162
0.0038884
0.00370504
0.00356579
0.00344714
0.00333585
0.00322188
0.00309691
0.00298366
0.00288566
0.00282057
0.00278371
0.00271399
0.00257095
0.00239729
0.0016666
0.00157871
0.00275918
0.00377651
0.00457505
0.00530764
0.00602124
0.0065875
0.00696801
0.00721199
0.0072401
0.00699707
0.00670324
0.00670518
0.00682654
0.00673606
0.00646601
0.00603921
0.00546406
0.00480222
0.00415425
0.00363736
0.0032888
0.00307495
0.00294376
0.00285682
0.00279356
0.00274508
0.0027093
0.00268915
0.00269531
0.00271092
0.00272482
0.00272538
0.0026821
0.00254902
0.00231475
0.00202456
0.0013411
0.00238094
0.00465714
0.00596006
0.00680582
0.00746395
0.00751592
0.00712688
0.00673645
0.00638828
0.00574054
0.00528411
0.005178
0.0051081
0.00490971
0.00460904
0.0042352
0.00379644
0.00333448
0.00291796
0.00259462
0.00237124
0.00224248
0.00218223
0.00216932
0.00219071
0.0022381
0.00230438
0.00238102
0.00247067
0.00257342
0.0026833
0.00279112
0.00287879
0.00292251
0.00288146
0.0028457
0.00262055
0.0013586
0.00249192
0.0025539
0.00260987
0.0028938
0.00272948
0.0024146
0.00203468
0.0017306
0.00154399
0.00136669
0.00121042
0.00108818
0.000984569
0.000906287
0.000851986
0.000812329
0.000780422
0.000752969
0.000730312
0.000715038
0.000709353
0.00071363
0.000726373
0.000745078
0.000768696
0.000796671
0.000828845
0.000865406
0.000906965
0.000954806
0.00100924
0.00106986
0.00113697
0.00121088
0.00129164
0.00138841
0.00143067
0.00140131
0.0013034
0.00120532
)
;

boundaryField
{
    floor
    {
        type            compressible::alphatWallFunction;
        Prt             0.85;
        value           nonuniform List<scalar> 
36
(
0.000160788
7.82458e-05
9.26542e-05
0.000105557
0.000110192
0.000108435
0.000101272
9.3279e-05
8.60611e-05
7.9754e-05
7.4229e-05
6.93665e-05
6.50811e-05
6.12549e-05
5.77472e-05
5.43985e-05
5.10128e-05
4.89829e-05
4.41824e-05
4.41818e-05
6.10499e-05
7.35233e-05
8.56043e-05
0.000115654
0.000122489
0.000133163
0.000160786
0.000210307
0.000175696
0.000143944
7.82449e-05
0.000143942
7.75463e-05
0.000169511
0.000121525
0.000194354
)
;
    }
    ceiling
    {
        type            compressible::alphatWallFunction;
        Prt             0.85;
        value           nonuniform List<scalar> 
43
(
0.000340315
0.000348188
0.000355284
0.000391106
0.000370503
0.000330601
0.000281691
0.000241829
0.000216987
0.00019307
0.000171696
0.000154756
0.000140225
0.000129128
0.000121364
0.000115656
0.000111041
0.000107051
0.000103745
0.000101509
0.000100676
0.000101303
0.000103169
0.000105901
0.000109339
0.000113395
0.000118038
0.000123289
0.000129226
0.000136021
0.000143704
0.000152203
0.000161548
0.000171767
0.000182853
0.000196033
0.000201757
0.000197783
0.000184462
0.000171006
0.000467148
0.000555344
0.000326065
)
;
    }
    sWall
    {
        type            compressible::alphatWallFunction;
        Prt             0.85;
        value           uniform 0.000339073;
    }
    nWall
    {
        type            compressible::alphatWallFunction;
        Prt             0.85;
        value           nonuniform List<scalar> 6(0.000132944 0.000137884 0.000163435 0.000189263 0.000191642 0.000170665);
    }
    sideWalls
    {
        type            empty;
    }
    glass1
    {
        type            compressible::alphatWallFunction;
        Prt             0.85;
        value           nonuniform List<scalar> 9(0.000171756 0.000229259 0.00027608 0.000320366 0.000364941 0.000412019 0.000457783 0.000468844 0.000460025);
    }
    glass2
    {
        type            compressible::alphatWallFunction;
        Prt             0.85;
        value           nonuniform List<scalar> 2(0.000247069 0.000231529);
    }
    sun
    {
        type            compressible::alphatWallFunction;
        Prt             0.85;
        value           nonuniform List<scalar> 
14
(
0.000176308
0.000191497
0.000195674
0.000204656
0.000212888
0.000220649
0.000228384
0.000236203
0.000242574
0.000246566
0.000247014
0.000242756
0.00023229
0.00020993
)
;
    }
    Table_master
    {
        type            compressible::alphatWallFunction;
        Prt             0.85;
        value           nonuniform List<scalar> 9(0.000136794 0.000119738 0.000105326 9.34817e-05 8.37932e-05 7.58464e-05 6.93155e-05 6.39821e-05 5.9799e-05);
    }
    Table_slave
    {
        type            compressible::alphatWallFunction;
        Prt             0.85;
        value           nonuniform List<scalar> 9(0.000153866 0.000141208 0.000132504 0.000126034 0.000120531 0.000115036 0.000109791 0.000104218 9.76603e-05);
    }
    inlet
    {
        type            fixedValue;
        value           uniform 1.94e-05;
    }
    outlet
    {
        type            zeroGradient;
    }
}


// ************************************************************************* //
