/*--------------------------------*- C++ -*----------------------------------*\
  =========                 |
  \\      /  F ield         | OpenFOAM: The Open Source CFD Toolbox
   \\    /   O peration     | Website:  https://openfoam.org
    \\  /    A nd           | Version:  6
     \\/     M anipulation  |
\*---------------------------------------------------------------------------*/
FoamFile
{
    version     2.0;
    format      ascii;
    class       volScalarField;
    location    "670";
    object      epsilon;
}
// * * * * * * * * * * * * * * * * * * * * * * * * * * * * * * * * * * * * * //

dimensions      [0 2 -3 0 0 0 0];

internalField   nonuniform List<scalar> 
458
(
0.000433584
0.00055902
0.000597857
0.000687862
0.00077837
0.00087108
0.000970933
0.0010798
0.00117459
0.00123683
0.00124387
0.00117715
0.00102405
0.00074478
0.000325612
3.92941e-05
6.32937e-05
9.22699e-05
0.000104652
9.9835e-05
8.17958e-05
6.45324e-05
5.13135e-05
4.14404e-05
3.39684e-05
2.82292e-05
2.37726e-05
2.02368e-05
1.73386e-05
1.48588e-05
1.26187e-05
1.13973e-05
8.84608e-06
0.00106242
0.00158459
0.000519559
0.000503781
0.000519725
0.000552341
0.000607898
0.00069036
0.000781836
0.000856176
0.000884225
0.00084978
0.000758542
0.000625122
0.000502937
0.000749138
0.000427857
0.000232317
3.83322e-05
7.54366e-05
9.29453e-05
9.36748e-05
8.99867e-05
9.02913e-05
7.07468e-05
5.36219e-05
4.08967e-05
3.16005e-05
2.47877e-05
1.9758e-05
1.59945e-05
1.31892e-05
1.14222e-05
1.07011e-05
3.04591e-05
2.00652e-05
0.0019091
0.00384908
0.000604861
0.000459315
0.000467162
0.00050949
0.000582076
0.000685641
0.00079942
0.000886837
0.000920524
0.000890249
0.000803982
0.000668682
0.00051892
0.000417547
0.000354082
0.000383121
0.000139797
0.00013933
0.000125813
0.000111814
0.000103839
0.00019869
0.000133305
9.13425e-05
6.46598e-05
4.73718e-05
3.58693e-05
2.80247e-05
2.25896e-05
1.88854e-05
1.4841e-05
1.3136e-05
6.47902e-05
3.31042e-05
0.0030653
0.00799579
0.000905172
0.000439891
0.000430207
0.000482462
0.000576585
0.000720129
0.000865238
0.000960794
0.000992098
0.000955589
0.00085745
0.000705144
0.000550008
0.000433633
0.000366977
0.000381477
0.000585577
0.000376802
0.000245871
0.000178853
0.000140962
0.000123449
0.000284198
0.000218874
0.000180638
0.000155458
0.000136085
0.000118502
0.000103276
8.86678e-05
7.34227e-05
4.54541e-05
2.9314e-05
0.000114523
5.05809e-05
0.00465267
0.0144285
0.00174264
0.000471878
0.000396565
0.000452832
0.000590857
0.000835773
0.00102152
0.00111493
0.00113154
0.00107213
0.000939878
0.000755599
0.000566333
0.000421276
0.000332698
0.000303575
0.000304683
0.000254383
0.000210091
0.000175772
0.000146883
0.00012257
0.000113506
0.000104185
9.78496e-05
9.24552e-05
8.64159e-05
7.89479e-05
7.10311e-05
6.32713e-05
5.59866e-05
4.60808e-05
3.62174e-05
7.47095e-05
0.000114475
0.000120893
0.000143451
0.000184227
0.00687541
0.0217364
0.00400641
0.000792771
0.00046655
0.000475751
0.00070432
0.00112424
0.00131007
0.00136969
0.00134739
0.00124966
0.00107004
0.000827248
0.000579101
0.000389866
0.000279777
0.000239389
0.000229087
0.000219077
0.000201941
0.000177508
0.000149944
0.000124276
0.000107729
0.000101218
9.99901e-05
9.95351e-05
9.73544e-05
9.1782e-05
8.18072e-05
7.05285e-05
5.98699e-05
5.01964e-05
4.34765e-05
5.55233e-05
8.83038e-05
0.000106077
0.000206623
0.00020556
0.00966224
0.0261967
0.00880231
0.00280678
0.00145924
0.00114632
0.00149006
0.00173238
0.001791
0.00175393
0.00165455
0.00148777
0.00123321
0.000910272
0.000589642
0.000356936
0.000235385
0.000201071
0.000203258
0.000203908
0.00019088
0.000167599
0.000141946
0.000120658
0.000109395
0.000108783
0.000113828
0.000120271
0.000125805
0.000128229
0.000124141
0.000111142
9.75572e-05
8.60131e-05
8.05282e-05
8.87923e-05
0.000120637
0.000176821
0.000327323
0.000344854
0.0104497
0.030088
0.016096
0.00965801
0.00597849
0.00419103
0.00339194
0.00288254
0.00254399
0.00228708
0.00204507
0.00176624
0.00140083
0.000970467
0.00056248
0.00030128
0.00019115
0.000175179
0.000180454
0.000177913
0.000162907
0.00014253
0.000124554
0.000113837
0.000112431
0.000119193
0.000131256
0.000146902
0.000165755
0.000187722
0.000212014
0.000232957
0.00024609
0.000273264
0.00032926
0.000480253
0.000820569
0.00137745
0.00410843
0.00128167
0.00984548
0.0172572
0.013241
0.00999083
0.00750973
0.0057969
0.00459338
0.00379568
0.00325737
0.00283116
0.00243461
0.00201274
0.00148728
0.000915477
0.000407286
0.000216584
0.000159409
0.000148086
0.000144995
0.000137416
0.000124995
0.000112783
0.000105169
0.000104229
0.000110019
0.000121553
0.000138075
0.000159885
0.000188339
0.000225686
0.000274996
0.000339888
0.00042722
0.00055191
0.000733907
0.000976461
0.00125054
0.00149808
0.00170283
0.00104475
0.00347645
0.00471777
0.00512286
0.00503173
0.00473977
0.00432901
0.00379394
0.00316889
0.00255712
0.00195385
0.00116318
0.000535897
0.000254167
0.00015957
0.000129144
0.000118192
0.000110904
0.00010305
9.53723e-05
8.98551e-05
8.83022e-05
9.11494e-05
9.80056e-05
0.000108464
0.000122524
0.000140766
0.000164436
0.000195656
0.000237892
0.000296919
0.00037838
0.000488499
0.000629831
0.000786296
0.000911138
0.000944708
0.000871264
0.000544309
0.00289539
0.00863224
0.00829881
0.00719066
0.00609235
0.00480344
0.00348868
0.00226065
0.00128611
0.000710724
0.000374689
0.000214731
0.000150568
0.000123441
0.000110338
0.000101446
9.34739e-05
8.63511e-05
8.10773e-05
7.8386e-05
7.85322e-05
8.16249e-05
8.7627e-05
9.67198e-05
0.000109425
0.00012665
0.000149788
0.000180914
0.000222989
0.000279776
0.000356407
0.000458078
0.000585614
0.000728384
0.000841764
0.00095591
0.000733817
0.000565827
0.00336929
0.00362551
0.00386903
0.00532877
0.00450007
0.00313175
0.00188276
0.00116237
0.000827014
0.000574312
0.000399299
0.000290261
0.000215056
0.00016776
0.000139392
0.000120828
0.000107149
9.62389e-05
8.78132e-05
8.24199e-05
8.04706e-05
8.19354e-05
8.64034e-05
9.32513e-05
0.000102403
0.000113994
0.00012837
0.000146117
0.000168194
0.000196239
0.000231752
0.000276068
0.000331352
0.000400276
0.000485854
0.000603499
0.000660373
0.00062059
0.000499404
0.000395093
)
;

boundaryField
{
    floor
    {
        Cmu             0.09;
        kappa           0.41;
        E               9.8;
        type            epsilonWallFunction;
        value           nonuniform List<scalar> 
36
(
0.000325612
3.92941e-05
6.32937e-05
9.22699e-05
0.000104652
9.9835e-05
8.17958e-05
6.45324e-05
5.13135e-05
4.14404e-05
3.39684e-05
2.82292e-05
2.37726e-05
2.02368e-05
1.73386e-05
1.48588e-05
1.26187e-05
1.13973e-05
8.84608e-06
8.84608e-06
2.00652e-05
3.31042e-05
5.05809e-05
0.000120893
0.000143451
0.000184227
0.000325612
0.000749138
0.000427857
0.000232317
3.92941e-05
0.000232317
3.83322e-05
0.000383121
0.000139797
0.000585577
)
;
    }
    ceiling
    {
        Cmu             0.09;
        kappa           0.41;
        E               9.8;
        type            epsilonWallFunction;
        value           nonuniform List<scalar> 
43
(
0.00336929
0.00362551
0.00386903
0.00532877
0.00450007
0.00313175
0.00188276
0.00116237
0.000827014
0.000574312
0.000399299
0.000290261
0.000215056
0.00016776
0.000139392
0.000120828
0.000107149
9.62389e-05
8.78132e-05
8.24199e-05
8.04706e-05
8.19354e-05
8.64034e-05
9.32513e-05
0.000102403
0.000113994
0.00012837
0.000146117
0.000168194
0.000196239
0.000231752
0.000276068
0.000331352
0.000400276
0.000485854
0.000603499
0.000660373
0.00062059
0.000499404
0.000395093
0.00984548
0.0172572
0.00289539
)
;
    }
    sWall
    {
        Cmu             0.09;
        kappa           0.41;
        E               9.8;
        type            epsilonWallFunction;
        value           uniform 0.00336929;
    }
    nWall
    {
        Cmu             0.09;
        kappa           0.41;
        E               9.8;
        type            epsilonWallFunction;
        value           nonuniform List<scalar> 6(0.000184227 0.00020556 0.000344854 0.000544309 0.000565827 0.000395093);
    }
    sideWalls
    {
        type            empty;
    }
    glass1
    {
        Cmu             0.09;
        kappa           0.41;
        E               9.8;
        type            epsilonWallFunction;
        value           nonuniform List<scalar> 9(0.000433584 0.00106242 0.0019091 0.0030653 0.00465267 0.00687541 0.00966224 0.0104497 0.00984548);
    }
    glass2
    {
        Cmu             0.09;
        kappa           0.41;
        E               9.8;
        type            epsilonWallFunction;
        value           nonuniform List<scalar> 2(0.00128167 0.00104475);
    }
    sun
    {
        Cmu             0.09;
        kappa           0.41;
        E               9.8;
        type            epsilonWallFunction;
        value           nonuniform List<scalar> 
14
(
0.000433584
0.00055902
0.000597857
0.000687862
0.00077837
0.00087108
0.000970933
0.0010798
0.00117459
0.00123683
0.00124387
0.00117715
0.00102405
0.00074478
)
;
    }
    Table_master
    {
        Cmu             0.09;
        kappa           0.41;
        E               9.8;
        type            epsilonWallFunction;
        value           nonuniform List<scalar> 9(0.00019869 0.000133305 9.13425e-05 6.46598e-05 4.73718e-05 3.58693e-05 2.80247e-05 2.25896e-05 1.88854e-05);
    }
    Table_slave
    {
        Cmu             0.09;
        kappa           0.41;
        E               9.8;
        type            epsilonWallFunction;
        value           nonuniform List<scalar> 9(0.000284198 0.000218874 0.000180638 0.000155458 0.000136085 0.000118502 0.000103276 8.86678e-05 7.34227e-05);
    }
    inlet
    {
        type            turbulentMixingLengthDissipationRateInlet;
        mixingLength    0.01;
        phi             phi;
        k               k;
        value           uniform 0.000471672;
    }
    outlet
    {
        type            zeroGradient;
    }
}


// ************************************************************************* //
