/*--------------------------------*- C++ -*----------------------------------*\
  =========                 |
  \\      /  F ield         | OpenFOAM: The Open Source CFD Toolbox
   \\    /   O peration     | Website:  https://openfoam.org
    \\  /    A nd           | Version:  6
     \\/     M anipulation  |
\*---------------------------------------------------------------------------*/
FoamFile
{
    version     2.0;
    format      ascii;
    class       volScalarField;
    location    "670";
    object      k;
}
// * * * * * * * * * * * * * * * * * * * * * * * * * * * * * * * * * * * * * //

dimensions      [0 2 -2 0 0 0 0];

internalField   nonuniform List<scalar> 
458
(
0.00227048
0.00268959
0.00281276
0.00308841
0.00335371
0.00361499
0.00388622
0.00417154
0.00441223
0.00456676
0.00458407
0.00441866
0.00402671
0.00325652
0.00187586
0.000458092
0.00062947
0.000809297
0.000880167
0.000852949
0.00074683
0.000637656
0.000547296
0.000474625
0.000415704
0.000367452
0.000327682
0.000294326
0.000265508
0.000239547
0.000214822
0.000200726
0.000169526
0.00412665
0.00755865
0.00415662
0.00438115
0.00472388
0.00514417
0.00564241
0.00620802
0.00681313
0.00732618
0.00760148
0.00754335
0.00713467
0.00636288
0.00514478
0.00326921
0.00225044
0.0014978
0.000450585
0.000973864
0.00130512
0.00146087
0.00147545
0.00126163
0.00102602
0.00083522
0.000689611
0.00057797
0.000491156
0.000421911
0.000365033
0.000317713
0.000283722
0.000264536
0.000493508
0.00029266
0.0060994
0.0136586
0.0049189
0.00473246
0.00494992
0.00529551
0.00576178
0.00635364
0.0070082
0.00756586
0.00790828
0.00796514
0.00770726
0.00707194
0.00604711
0.00489729
0.00392579
0.0020907
0.00106758
0.00140018
0.00160528
0.00173311
0.00172601
0.00134954
0.00103427
0.000803865
0.000638495
0.000518897
0.000431072
0.000365675
0.000316718
0.000281073
0.000262284
0.000265539
0.000779712
0.000408624
0.00836341
0.0222481
0.0059357
0.00471424
0.00475445
0.00502571
0.00548487
0.00618176
0.00690782
0.00747954
0.00785123
0.0079709
0.00776354
0.00715863
0.00629842
0.00544606
0.00464146
0.00350647
0.00277411
0.00251011
0.00237734
0.00234203
0.00229408
0.00215658
0.00171323
0.00143945
0.00126651
0.00114589
0.0010486
0.000956208
0.000872436
0.000788095
0.000694952
0.000530662
0.000423015
0.00113198
0.000542075
0.0110459
0.0339705
0.00843552
0.00475761
0.00449088
0.00471765
0.00531233
0.0063713
0.00720142
0.00775696
0.00811392
0.008216
0.00791683
0.00719603
0.00622749
0.00531955
0.0045891
0.00398633
0.00380106
0.00348579
0.00325899
0.00307747
0.00286618
0.00259694
0.0023085
0.00211157
0.00199082
0.00189555
0.00179302
0.00166376
0.00149404
0.00130078
0.00109505
0.000866426
0.00066522
0.000922106
0.00106328
0.000969025
0.0010861
0.00128323
0.0143307
0.046703
0.0149678
0.00593471
0.00475274
0.00479534
0.00572629
0.00728694
0.00805016
0.00849344
0.00875943
0.00876857
0.00833846
0.00739308
0.00613606
0.00497632
0.00419318
0.00385069
0.00382283
0.00383194
0.00374101
0.00351801
0.00319815
0.00284289
0.00255463
0.00240103
0.00232651
0.00226722
0.00218849
0.00206803
0.00188074
0.00165075
0.00140177
0.00114785
0.000936389
0.000901052
0.00103002
0.00105426
0.00165106
0.00138047
0.0179799
0.055062
0.0270977
0.0123823
0.00832984
0.00743666
0.00853195
0.00923179
0.00950616
0.00966695
0.00975329
0.00960735
0.00896737
0.00772435
0.00612151
0.00470881
0.00389679
0.00374607
0.00390873
0.00399347
0.00386438
0.00356081
0.00318051
0.0028201
0.00257416
0.00247401
0.00245616
0.00246072
0.00245796
0.002427
0.00233814
0.00214916
0.00191246
0.00166061
0.00145868
0.00136573
0.00145179
0.00168212
0.00223436
0.00194906
0.018944
0.0568429
0.0383105
0.0271894
0.0197679
0.015913
0.0137504
0.0123093
0.011557
0.0112362
0.0110372
0.0106372
0.00966836
0.00800957
0.00598437
0.00440155
0.00368713
0.00366563
0.00379045
0.00376092
0.00352716
0.00317953
0.00282829
0.00255727
0.0024134
0.0023879
0.00243461
0.00252007
0.00263227
0.00276873
0.00292677
0.00306839
0.00311115
0.00314113
0.00329435
0.00387116
0.00512105
0.00681667
0.0128304
0.00467647
0.0182065
0.0264676
0.0243629
0.0217116
0.0188895
0.0164699
0.014663
0.0136051
0.0131086
0.0127977
0.0123916
0.0116279
0.0100925
0.00778032
0.00516506
0.00386486
0.00341041
0.00331782
0.00326131
0.00309942
0.00283088
0.00253421
0.00228784
0.00213832
0.00209192
0.00212544
0.00221124
0.00233432
0.00249101
0.00268244
0.00290997
0.00317177
0.00349036
0.00390149
0.00444808
0.0050973
0.00569611
0.0060683
0.00624769
0.00408078
0.00717959
0.0110888
0.0135423
0.0147831
0.0154581
0.0157397
0.0154179
0.0144985
0.0132565
0.0116155
0.00881458
0.00585773
0.00403524
0.00322632
0.00288327
0.00270252
0.00253007
0.00231985
0.00209228
0.00188892
0.00175218
0.00169277
0.00169725
0.00174701
0.00182917
0.00193879
0.0020772
0.00225101
0.00247287
0.00276584
0.00313133
0.00356708
0.00405087
0.00449023
0.00471233
0.00457276
0.0041071
0.0026422
0.00805142
0.0194895
0.0216484
0.0215496
0.0207836
0.0185293
0.0153864
0.0120493
0.00885522
0.00624223
0.00434934
0.00325969
0.00271123
0.0024068
0.00220475
0.00202653
0.00184179
0.00165905
0.00150385
0.00139436
0.00133423
0.00132281
0.00135204
0.00141625
0.00151381
0.00164613
0.00181651
0.00202928
0.00229495
0.00262353
0.00302367
0.00349616
0.00401467
0.00451136
0.00481575
0.00510013
0.00428813
0.00271138
0.00890758
0.00935364
0.00976793
0.0120917
0.0108031
0.00848384
0.00604318
0.00438158
0.00349202
0.00273842
0.00214915
0.00173751
0.00142266
0.00120557
0.00106551
0.000968681
0.000894116
0.000832342
0.000783023
0.000750625
0.000738742
0.00074768
0.00077462
0.000815025
0.000867511
0.0009318
0.00100858
0.00109952
0.00120765
0.00133842
0.00149537
0.0016804
0.00189784
0.00215266
0.00244947
0.00283043
0.00300558
0.00288362
0.0024948
0.00213403
)
;

boundaryField
{
    floor
    {
        type            kqRWallFunction;
        value           nonuniform List<scalar> 
36
(
0.00187586
0.000458092
0.00062947
0.000809297
0.000880167
0.000852949
0.00074683
0.000637656
0.000547296
0.000474625
0.000415704
0.000367452
0.000327682
0.000294326
0.000265508
0.000239547
0.000214822
0.000200726
0.000169526
0.000169526
0.00029266
0.000408624
0.000542075
0.000969025
0.0010861
0.00128323
0.00187586
0.00326921
0.00225044
0.0014978
0.000458092
0.0014978
0.000450585
0.0020907
0.00106758
0.00277411
)
;
    }
    ceiling
    {
        type            kqRWallFunction;
        value           nonuniform List<scalar> 
43
(
0.00890758
0.00935364
0.00976793
0.0120917
0.0108031
0.00848384
0.00604318
0.00438158
0.00349202
0.00273842
0.00214915
0.00173751
0.00142266
0.00120557
0.00106551
0.000968681
0.000894116
0.000832342
0.000783023
0.000750625
0.000738742
0.00074768
0.00077462
0.000815025
0.000867511
0.0009318
0.00100858
0.00109952
0.00120765
0.00133842
0.00149537
0.0016804
0.00189784
0.00215266
0.00244947
0.00283043
0.00300558
0.00288362
0.0024948
0.00213403
0.0182065
0.0264676
0.00805142
)
;
    }
    sWall
    {
        type            kqRWallFunction;
        value           uniform 0.00890758;
    }
    nWall
    {
        type            kqRWallFunction;
        value           nonuniform List<scalar> 6(0.00128323 0.00138047 0.00194906 0.0026422 0.00271138 0.00213403);
    }
    sideWalls
    {
        type            empty;
    }
    glass1
    {
        type            kqRWallFunction;
        value           nonuniform List<scalar> 9(0.00227048 0.00412665 0.0060994 0.00836341 0.0110459 0.0143307 0.0179799 0.018944 0.0182065);
    }
    glass2
    {
        type            kqRWallFunction;
        value           nonuniform List<scalar> 2(0.00467647 0.00408078);
    }
    sun
    {
        type            kqRWallFunction;
        value           nonuniform List<scalar> 
14
(
0.00227048
0.00268959
0.00281276
0.00308841
0.00335371
0.00361499
0.00388622
0.00417154
0.00441223
0.00456676
0.00458407
0.00441866
0.00402671
0.00325652
)
;
    }
    Table_master
    {
        type            kqRWallFunction;
        value           nonuniform List<scalar> 9(0.00134954 0.00103427 0.000803865 0.000638495 0.000518897 0.000431072 0.000365675 0.000316718 0.000281073);
    }
    Table_slave
    {
        type            kqRWallFunction;
        value           nonuniform List<scalar> 9(0.00171323 0.00143945 0.00126651 0.00114589 0.0010486 0.000956208 0.000872436 0.000788095 0.000694952);
    }
    inlet
    {
        type            turbulentIntensityKineticEnergyInlet;
        intensity       0.05;
        value           uniform 0.000937501;
    }
    outlet
    {
        type            zeroGradient;
    }
}


// ************************************************************************* //
