/*--------------------------------*- C++ -*----------------------------------*\
  =========                 |
  \\      /  F ield         | OpenFOAM: The Open Source CFD Toolbox
   \\    /   O peration     | Website:  https://openfoam.org
    \\  /    A nd           | Version:  6
     \\/     M anipulation  |
\*---------------------------------------------------------------------------*/
FoamFile
{
    version     2.0;
    format      ascii;
    class       volVectorField;
    location    "18300";
    object      U;
}
// * * * * * * * * * * * * * * * * * * * * * * * * * * * * * * * * * * * * * //

dimensions      [0 1 -1 0 0 0 0];

internalField   nonuniform List<vector> 
778
(
(0.0655997 0.0794063 0)
(-0.155175 0.0157631 0)
(-0.164298 0.0146211 0)
(-0.192409 0.0122709 0)
(-0.216838 0.00872108 0)
(-0.236891 0.00474105 0)
(-0.252013 0.000415525 0)
(-0.26178 -0.00436814 0)
(-0.265679 -0.00980874 0)
(-0.262708 -0.016187 0)
(-0.250911 -0.0242588 0)
(-0.22622 -0.0348766 0)
(-0.186106 -0.0503973 0)
(-0.144173 -0.075166 0)
(-0.150051 -0.108556 0)
(0.0546749 0.0355062 0)
(0.0158016 -0.0268997 0)
(0.0450234 -0.0232852 0)
(0.0694679 -0.0161801 0)
(0.0845665 -0.0103686 0)
(0.0917984 -0.00641857 0)
(0.0946371 -0.00433616 0)
(0.0956665 -0.00331481 0)
(0.096119 -0.00272951 0)
(0.096293 -0.00231686 0)
(0.0961716 -0.00195208 0)
(0.0956461 -0.00151065 0)
(0.0943864 -0.000755251 0)
(0.0915334 0.000851375 0)
(0.0853163 0.00407943 0)
(0.0737506 0.00779623 0)
(0.0600414 0.0116528 0)
(-0.00785017 0.0300273 0)
(0.2584 0.167392 0)
(-0.161234 0.0483891 0)
(-0.141598 0.045973 0)
(-0.173996 0.0416049 0)
(-0.199351 0.0356568 0)
(-0.220064 0.0291185 0)
(-0.236086 0.0220497 0)
(-0.247334 0.0142237 0)
(-0.253509 0.0052964 0)
(-0.253831 -0.00514844 0)
(-0.247684 -0.0170759 0)
(-0.233988 -0.0308441 0)
(-0.21409 -0.0480724 0)
(-0.19752 -0.0699577 0)
(-0.194012 -0.0826354 0)
(-0.166414 -0.0425359 0)
(-0.10537 -0.0363552 0)
(-0.0983193 -0.0444634 0)
(0.109352 -0.0421483 0)
(0.0644821 -0.0412366 0)
(0.0719659 -0.0323429 0)
(0.0859967 -0.0207915 0)
(0.093953 -0.010532 0)
(0.0962225 -0.00365331 0)
(0.0959889 -0.000188363 0)
(0.0955936 0.00125324 0)
(0.0955513 0.00189333 0)
(0.0956295 0.00226381 0)
(0.0956365 0.00258699 0)
(0.0955372 0.00313242 0)
(0.0952467 0.00441799 0)
(0.0939884 0.00774046 0)
(0.0883853 0.016789 0)
(0.0746073 0.0254005 0)
(0.0632128 0.0330583 0)
(-0.0518335 0.0636898 0)
(0.42998 0.253953 0)
(-0.194235 0.0847549 0)
(-0.112774 0.0784197 0)
(-0.148234 0.0669379 0)
(-0.170658 0.0554798 0)
(-0.188743 0.0437082 0)
(-0.202573 0.0313301 0)
(-0.212259 0.0180017 0)
(-0.217608 0.00340301 0)
(-0.217967 -0.0126197 0)
(-0.212716 -0.0303078 0)
(-0.201615 -0.0498945 0)
(-0.185976 -0.0715624 0)
(-0.169434 -0.093214 0)
(-0.151056 -0.104566 0)
(-0.120213 -0.0931362 0)
(-0.0795166 -0.0949253 0)
(-0.0714042 -0.107578 0)
(0.0921796 -0.0882103 0)
(0.0626121 -0.0658343 0)
(0.0744301 -0.0462324 0)
(0.0880987 -0.0293728 0)
(0.0949958 -0.0150472 0)
(0.0921421 -0.0120822 0)
(0.0879006 -0.00796527 0)
(0.0855248 -0.00578009 0)
(0.0848329 -0.0045568 0)
(0.0848085 -0.00379755 0)
(0.0850607 -0.00322744 0)
(0.0857117 -0.00259998 0)
(0.0874756 -0.00143799 0)
(0.0921691 0.00292745 0)
(0.0903391 0.0251368 0)
(0.0735345 0.0424408 0)
(0.0702192 0.0576344 0)
(-0.0897614 0.101144 0)
(0.578546 0.325838 0)
(-0.240106 0.121805 0)
(-0.0808304 0.109205 0)
(-0.121566 0.0898298 0)
(-0.138993 0.074042 0)
(-0.153047 0.0586093 0)
(-0.163799 0.0427318 0)
(-0.171387 0.0257978 0)
(-0.175593 0.00719831 0)
(-0.175657 -0.0135198 0)
(-0.170971 -0.0364521 0)
(-0.161404 -0.0614392 0)
(-0.147534 -0.0873652 0)
(-0.130544 -0.110304 0)
(-0.109572 -0.123205 0)
(-0.0820814 -0.124536 0)
(-0.0524596 -0.126353 0)
(-0.0333232 -0.123177 0)
(0.0164515 -0.056815 0)
(0.0608974 -0.0930549 0)
(0.0685443 -0.0792574 0)
(0.0791564 -0.0589277 0)
(0.0916453 -0.0397136 0)
(0.102973 -0.0210669 0)
(0.115731 -0.0132983 0)
(0.12696 -0.00887019 0)
(0.132626 -0.00563707 0)
(0.133657 -0.00311903 0)
(0.131165 -0.000889511 0)
(0.125727 0.00128266 0)
(0.117216 0.00366528 0)
(0.104867 0.00672223 0)
(0.0856232 0.011156 0)
(0.071739 0.0368501 0)
(0.0604633 0.060639 0)
(0.0764963 0.083571 0)
(-0.117224 0.137617 0)
(0.705723 0.383676 0)
(-0.287682 0.156999 0)
(-0.0476941 0.133761 0)
(-0.0962856 0.106892 0)
(-0.107732 0.0875649 0)
(-0.116759 0.0691438 0)
(-0.123542 0.0504235 0)
(-0.128195 0.0305739 0)
(-0.130548 0.00872263 0)
(-0.129737 -0.0158091 0)
(-0.125235 -0.0430591 0)
(-0.116608 -0.0726678 0)
(-0.103876 -0.102821 0)
(-0.0873843 -0.129097 0)
(-0.0674161 -0.145793 0)
(-0.0440553 -0.152261 0)
(-0.0201843 -0.152351 0)
(0.000367124 -0.143696 0)
(0.0308897 -0.115004 0)
(0.0570554 -0.109384 0)
(0.0706303 -0.0924971 0)
(0.080757 -0.0713551 0)
(0.0908114 -0.0509252 0)
(0.100369 -0.0328931 0)
(0.109505 -0.0194881 0)
(0.116581 -0.0100904 0)
(0.12006 -0.00338273 0)
(0.120308 0.00188225 0)
(0.117934 0.00643894 0)
(0.113309 0.0108014 0)
(0.106462 0.01548 0)
(0.0973267 0.0211764 0)
(0.0854135 0.0291922 0)
(0.0738801 0.0472158 0)
(0.0634432 0.071309 0)
(0.0951194 0.0995448 0)
(0.0174851 0.1388 0)
(0.0970522 0.182745 0)
(0.140312 0.146379 0)
(-0.221315 0.201779 0)
(0.810425 0.43197 0)
(-0.331318 0.190669 0)
(-0.017316 0.150226 0)
(-0.0733625 0.117493 0)
(-0.0785843 0.0954795 0)
(-0.0822003 0.0749127 0)
(-0.0844486 0.0543147 0)
(-0.0854797 0.0327011 0)
(-0.0852172 0.00885474 0)
(-0.082535 -0.0184005 0)
(-0.0773627 -0.0490041 0)
(-0.0687256 -0.0824819 0)
(-0.0567121 -0.116501 0)
(-0.0416267 -0.146328 0)
(-0.0246165 -0.166018 0)
(-0.00620336 -0.174505 0)
(0.0121912 -0.172734 0)
(0.0281144 -0.160985 0)
(0.0462736 -0.139314 0)
(0.0627123 -0.122358 0)
(0.0733686 -0.102544 0)
(0.0810316 -0.0805304 0)
(0.0877821 -0.05922 0)
(0.093969 -0.0403643 0)
(0.0993279 -0.0251895 0)
(0.103064 -0.013826 0)
(0.104722 -0.0051231 0)
(0.104347 0.00208186 0)
(0.102235 0.00856458 0)
(0.0986315 0.0148419 0)
(0.0936949 0.0214386 0)
(0.0876582 0.0289852 0)
(0.080793 0.0383941 0)
(0.0750598 0.0528113 0)
(0.0698902 0.0728092 0)
(0.092117 0.0985709 0)
(0.0743324 0.107503 0)
(0.0913386 0.0481749 0)
(0.146479 -0.0352682 0)
(-0.322938 0.106674 0)
(0.879887 0.474682 0)
(-0.368636 0.220951 0)
(0.00371318 0.155533 0)
(-0.052658 0.121541 0)
(-0.0522008 0.0978168 0)
(-0.0510139 0.0757851 0)
(-0.0490023 0.0540116 0)
(-0.046479 0.0315133 0)
(-0.0432823 0.00676464 0)
(-0.0373125 -0.02229 0)
(-0.0302286 -0.0553458 0)
(-0.02043 -0.091922 0)
(-0.00860274 -0.128896 0)
(0.00463355 -0.161274 0)
(0.0177079 -0.181908 0)
(0.0305136 -0.190227 0)
(0.042333 -0.187216 0)
(0.0526421 -0.174389 0)
(0.0626026 -0.154034 0)
(0.0711606 -0.132395 0)
(0.0766641 -0.10941 0)
(0.0801055 -0.0859507 0)
(0.0826947 -0.0638157 0)
(0.0849387 -0.0443495 0)
(0.0867985 -0.0282683 0)
(0.0879376 -0.0154787 0)
(0.0881231 -0.00520536 0)
(0.0872012 0.0034664 0)
(0.0853442 0.0112169 0)
(0.0826963 0.018566 0)
(0.0794297 0.0260088 0)
(0.0758241 0.0340404 0)
(0.0722917 0.0432079 0)
(0.0702309 0.0547932 0)
(0.0690786 0.0691888 0)
(0.0822824 0.0881543 0)
(0.0858098 0.0914972 0)
(0.0917391 0.0544688 0)
(0.18159 0.0274766 0)
(-0.277613 0.156605 0)
(0.927923 0.517141 0)
(-0.383149 0.234147 0)
(0.016886 0.132935 0)
(-0.0273192 0.116614 0)
(-0.0265417 0.0948782 0)
(-0.0227253 0.0723827 0)
(-0.0176018 0.0500608 0)
(-0.0123161 0.0272163 0)
(-0.0053281 0.00182659 0)
(0.00465138 -0.0307425 0)
(0.0143898 -0.0653181 0)
(0.0257055 -0.103324 0)
(0.0373609 -0.140862 0)
(0.0480428 -0.172155 0)
(0.0571354 -0.192348 0)
(0.0646275 -0.199819 0)
(0.0703461 -0.195374 0)
(0.0742925 -0.181157 0)
(0.0769761 -0.160061 0)
(0.0783137 -0.136073 0)
(0.0779282 -0.11109 0)
(0.0764022 -0.0866121 0)
(0.0745734 -0.0641028 0)
(0.0729731 -0.0445515 0)
(0.0717417 -0.0283265 0)
(0.0707407 -0.0151416 0)
(0.069764 -0.00430023 0)
(0.0685169 0.00496916 0)
(0.0670885 0.0132448 0)
(0.0654459 0.0210079 0)
(0.0636613 0.0286769 0)
(0.0619153 0.0365924 0)
(0.0605136 0.0450214 0)
(0.0603515 0.0543963 0)
(0.0613701 0.0646365 0)
(0.0704166 0.0773108 0)
(0.0810925 0.0802053 0)
(0.0828639 0.0609309 0)
(0.239063 0.0572222 0)
(-0.544206 0.235492 0)
(1.01128 0.506794 0)
(-0.137133 0.296326 0)
(0.0410946 0.161482 0)
(0.0406412 0.122025 0)
(0.0131223 0.0919031 0)
(0.00870132 0.0652871 0)
(0.0141406 0.0413125 0)
(0.0207851 0.0169086 0)
(0.0326177 -0.0110781 0)
(0.0441043 -0.0421816 0)
(0.0560014 -0.0769219 0)
(0.0682961 -0.114641 0)
(0.0794394 -0.151106 0)
(0.0879317 -0.180572 0)
(0.0931332 -0.198592 0)
(0.0951621 -0.203745 0)
(0.0944296 -0.197077 0)
(0.0914832 -0.181016 0)
(0.0869984 -0.158612 0)
(0.0814261 -0.133192 0)
(0.0750623 -0.107193 0)
(0.0685135 -0.0824402 0)
(0.0625105 -0.0602797 0)
(0.0575814 -0.0414259 0)
(0.0539216 -0.02595 0)
(0.0514233 -0.013347 0)
(0.049803 -0.0028405 0)
(0.0486545 0.00625922 0)
(0.0479167 0.0144511 0)
(0.047353 0.022171 0)
(0.0468941 0.0297482 0)
(0.0465654 0.0373905 0)
(0.0464754 0.045172 0)
(0.0470555 0.0530906 0)
(0.0483566 0.0606383 0)
(0.0542693 0.0677962 0)
(0.0657212 0.0645191 0)
(0.0641617 0.0356763 0)
(0.288504 0.0707836 0)
(-0.74543 0.308904 0)
(0.77931 0.395638 0)
(0.000967116 0.31945 0)
(0.0934453 0.218873 0)
(0.110682 0.155104 0)
(0.0772569 0.106733 0)
(0.059875 0.0674337 0)
(0.0583014 0.0356371 0)
(0.062489 0.00628936 0)
(0.0739514 -0.0235426 0)
(0.0855546 -0.0551226 0)
(0.0977789 -0.0898011 0)
(0.109661 -0.126284 0)
(0.119033 -0.160052 0)
(0.124116 -0.185754 0)
(0.124316 -0.199813 0)
(0.120066 -0.201392 0)
(0.11232 -0.191853 0)
(0.102151 -0.173746 0)
(0.0905995 -0.150109 0)
(0.0785053 -0.123983 0)
(0.0665615 -0.0979184 0)
(0.0555116 -0.0738368 0)
(0.0460957 -0.0529798 0)
(0.0388023 -0.0357809 0)
(0.0337447 -0.022004 0)
(0.0306738 -0.010852 0)
(0.0291075 -0.00140864 0)
(0.0285599 0.00695393 0)
(0.0287155 0.0146787 0)
(0.0292262 0.0221308 0)
(0.0299232 0.0295446 0)
(0.0306802 0.0370507 0)
(0.0313433 0.0446655 0)
(0.0317284 0.0522958 0)
(0.0309472 0.0594461 0)
(0.0295015 0.0655485 0)
(0.0141415 0.0652873 0)
(0.00671587 0.0978194 0)
(0.0329812 0.177193 0)
(-0.633174 0.306202 0)
(0.617234 0.220645 0)
(0.00478707 0.298027 0)
(0.113086 0.241489 0)
(0.148371 0.177475 0)
(0.130951 0.123395 0)
(0.117935 0.0776926 0)
(0.115087 0.0387307 0)
(0.11728 0.00322725 0)
(0.123682 -0.0308784 0)
(0.131947 -0.0651301 0)
(0.141664 -0.100573 0)
(0.150558 -0.135401 0)
(0.155684 -0.165243 0)
(0.15511 -0.185756 0)
(0.14853 -0.194628 0)
(0.136847 -0.19188 0)
(0.121532 -0.17925 0)
(0.104086 -0.159308 0)
(0.0858793 -0.13497 0)
(0.068016 -0.109035 0)
(0.0514482 -0.0840016 0)
(0.0370718 -0.061751 0)
(0.0256633 -0.0433686 0)
(0.0175453 -0.0289037 0)
(0.0125238 -0.0177155 0)
(0.00993493 -0.00861781 0)
(0.00903381 -0.000623765 0)
(0.00934706 0.00677321 0)
(0.0103583 0.0139075 0)
(0.0117945 0.0210317 0)
(0.0134742 0.0283026 0)
(0.0152011 0.0358606 0)
(0.0166553 0.0438467 0)
(0.017282 0.0524813 0)
(0.0157481 0.0620226 0)
(0.0113062 0.0737429 0)
(-0.0190057 0.0993912 0)
(-0.0185556 0.150898 0)
(-0.00301636 0.185873 0)
(-0.542536 0.183476 0)
(0.570785 0.118226 0)
(-0.0202366 0.258522 0)
(0.113726 0.22983 0)
(0.165079 0.175974 0)
(0.166757 0.126057 0)
(0.164435 0.0809345 0)
(0.165447 0.0397778 0)
(0.168433 0.00141587 0)
(0.172427 -0.0355927 0)
(0.178043 -0.072066 0)
(0.184245 -0.107666 0)
(0.187952 -0.13965 0)
(0.186143 -0.164156 0)
(0.177444 -0.17837 0)
(0.162303 -0.18149 0)
(0.142265 -0.174404 0)
(0.11926 -0.159131 0)
(0.0950354 -0.138107 0)
(0.0711801 -0.114058 0)
(0.048919 -0.089495 0)
(0.0294349 -0.0668397 0)
(0.0137793 -0.0478626 0)
(0.00262677 -0.0333172 0)
(-0.00431958 -0.0224732 0)
(-0.00784117 -0.014371 0)
(-0.00929898 -0.00737164 0)
(-0.00938714 -0.000766118 0)
(-0.00839989 0.0057218 0)
(-0.00681537 0.0122611 0)
(-0.00473201 0.0189913 0)
(-0.00228075 0.0260356 0)
(0.000429099 0.0336697 0)
(0.00310671 0.0421549 0)
(0.00526665 0.0521577 0)
(0.00585907 0.0649256 0)
(0.00551981 0.0835924 0)
(-0.0156195 0.122131 0)
(-0.0138761 0.18915 0)
(0.0711484 0.195024 0)
(-0.503585 0.0604156 0)
(0.628516 0.0534004 0)
(0.0092203 0.197222 0)
(0.113739 0.196913 0)
(0.175053 0.15785 0)
(0.19132 0.11755 0)
(0.198 0.077079 0)
(0.20337 0.0370287 0)
(0.20863 -0.00178911 0)
(0.213198 -0.0399274 0)
(0.217567 -0.0767344 0)
(0.219428 -0.110067 0)
(0.21562 -0.136789 0)
(0.204258 -0.154317 0)
(0.18544 -0.16166 0)
(0.160779 -0.15937 0)
(0.132431 -0.14884 0)
(0.102619 -0.132124 0)
(0.0730414 -0.111314 0)
(0.0454557 -0.0889523 0)
(0.0210422 -0.0672387 0)
(0.00141963 -0.0485884 0)
(-0.0123425 -0.0346945 0)
(-0.0203237 -0.0254524 0)
(-0.0246607 -0.018556 0)
(-0.0266196 -0.0127241 0)
(-0.0271108 -0.00716541 0)
(-0.0265795 -0.00155848 0)
(-0.0251627 0.00421008 0)
(-0.0232402 0.0101878 0)
(-0.0207663 0.0164435 0)
(-0.0178005 0.0230818 0)
(-0.0143435 0.0303568 0)
(-0.0104215 0.0387275 0)
(-0.00620001 0.0491347 0)
(-0.00231505 0.0636365 0)
(0.0031055 0.0867915 0)
(0.000327521 0.126384 0)
(-0.00379904 0.195109 0)
(0.151404 0.205349 0)
(-0.381228 0.0859337 0)
(0.472067 0.0747528 0)
(-0.132187 0.137539 0)
(0.0941148 0.133245 0)
(0.172574 0.116698 0)
(0.20369 0.0951783 0)
(0.217994 0.064152 0)
(0.228021 0.0280731 0)
(0.23716 -0.00932217 0)
(0.243607 -0.0456495 0)
(0.245166 -0.0785196 0)
(0.239226 -0.105292 0)
(0.224445 -0.123929 0)
(0.201354 -0.133598 0)
(0.171871 -0.134742 0)
(0.138557 -0.128598 0)
(0.103683 -0.116424 0)
(0.069505 -0.100051 0)
(0.0372023 -0.0811034 0)
(0.0091131 -0.0621145 0)
(-0.0140578 -0.0450572 0)
(-0.0286164 -0.0337899 0)
(-0.0374772 -0.0262906 0)
(-0.0423454 -0.0209369 0)
(-0.0447985 -0.0164176 0)
(-0.0456546 -0.0121015 0)
(-0.0453989 -0.0076166 0)
(-0.0443102 -0.00280619 0)
(-0.0424676 0.002374 0)
(-0.0402984 0.00783988 0)
(-0.0376475 0.0135845 0)
(-0.0345193 0.019694 0)
(-0.030861 0.0263606 0)
(-0.0265546 0.0340214 0)
(-0.0216122 0.0438273 0)
(-0.0166273 0.0586843 0)
(-0.0101635 0.0822698 0)
(-0.00123762 0.114422 0)
(0.00172132 0.166201 0)
(0.179612 0.187526 0)
(-0.320928 0.150905 0)
(0.72389 0.134458 0)
(0.0818986 0.115229 0)
(0.14967 0.0991582 0)
(0.222265 0.0803859 0)
(0.243909 0.0697501 0)
(0.248711 0.0473887 0)
(0.255054 0.0171826 0)
(0.26119 -0.0151092 0)
(0.26024 -0.0450923 0)
(0.249767 -0.0698542 0)
(0.229561 -0.087713 0)
(0.201221 -0.0982186 0)
(0.167134 -0.101692 0)
(0.129834 -0.0991135 0)
(0.0917752 -0.0917102 0)
(0.0543689 -0.0801396 0)
(0.0201973 -0.0660051 0)
(-0.0111687 -0.0504496 0)
(-0.0337467 -0.0382772 0)
(-0.0488963 -0.0299473 0)
(-0.0580322 -0.0248267 0)
(-0.0634197 -0.0212656 0)
(-0.0664059 -0.0183323 0)
(-0.067786 -0.0154314 0)
(-0.0679341 -0.0122837 0)
(-0.0670785 -0.00870531 0)
(-0.0654141 -0.00457267 0)
(-0.0630817 0.000163178 0)
(-0.060464 0.00532961 0)
(-0.0578104 0.0107618 0)
(-0.0550026 0.0165128 0)
(-0.0521585 0.0227476 0)
(-0.0493512 0.0299604 0)
(-0.0466129 0.0395979 0)
(-0.0441913 0.0542795 0)
(-0.0409282 0.0744269 0)
(-0.030811 0.0937482 0)
(-0.013773 0.113404 0)
(0.180749 0.156122 0)
(-0.377481 0.216504 0)
(0.192036 0.0879677 0)
(0.225812 0.0997219 0)
(0.246532 0.0699873 0)
(0.242583 0.0395272 0)
(0.23975 0.0117809 0)
(0.234679 -0.0132045 0)
(0.219913 -0.0336357 0)
(0.196194 -0.0487437 0)
(0.165906 -0.0585211 0)
(0.131513 -0.0634298 0)
(0.0948144 -0.0637877 0)
(0.057707 -0.0602876 0)
(0.0220798 -0.0537436 0)
(-0.0127426 -0.0442501 0)
(-0.0401405 -0.0350673 0)
(-0.0608583 -0.027678 0)
(-0.0748897 -0.0230935 0)
(-0.0839701 -0.0204414 0)
(-0.0897682 -0.0188831 0)
(-0.0935337 -0.0175789 0)
(-0.0958477 -0.0161899 0)
(-0.0969586 -0.0145326 0)
(-0.0969609 -0.0124702 0)
(-0.0959153 -0.00985201 0)
(-0.0939181 -0.00650916 0)
(-0.0911221 -0.0022919 0)
(-0.087647 0.00277118 0)
(-0.0846503 0.00831859 0)
(-0.0819911 0.0143168 0)
(-0.079982 0.0210509 0)
(-0.0788864 0.0291386 0)
(-0.0785846 0.0398703 0)
(-0.079617 0.0547519 0)
(-0.0838519 0.0728704 0)
(-0.0864299 0.0879216 0)
(-0.0650239 0.101749 0)
(-0.00393136 0.155591 0)
(-0.494895 0.239695 0)
(0.451432 0.209373 0)
(0.207026 0.178651 0)
(0.153282 0.118747 0)
(0.139959 0.0639154 0)
(0.128383 0.0257137 0)
(0.114173 0.00162547 0)
(0.0986852 -0.0131179 0)
(0.07763 -0.0223235 0)
(0.0530391 -0.0280531 0)
(0.0260627 -0.0306567 0)
(-0.00349409 -0.0300177 0)
(-0.0323807 -0.0270003 0)
(-0.058118 -0.0228669 0)
(-0.079768 -0.0187723 0)
(-0.0959675 -0.0160328 0)
(-0.107428 -0.0145016 0)
(-0.115359 -0.0139852 0)
(-0.12116 -0.0138149 0)
(-0.125636 -0.0137013 0)
(-0.129111 -0.0135174 0)
(-0.131645 -0.0132234 0)
(-0.133197 -0.0127606 0)
(-0.133683 -0.0120182 0)
(-0.133009 -0.0108027 0)
(-0.131122 -0.00882401 0)
(-0.12807 -0.00572209 0)
(-0.123974 -0.00120072 0)
(-0.119062 0.00464487 0)
(-0.115028 0.0112683 0)
(-0.111781 0.0188566 0)
(-0.109225 0.0281325 0)
(-0.106683 0.0402519 0)
(-0.104137 0.0563319 0)
(-0.104919 0.0766786 0)
(-0.106678 0.0996685 0)
(-0.084185 0.12033 0)
(-0.0998671 0.127601 0)
(-0.588083 0.10544 0)
(0.363246 -0.41333 0)
(-0.345724 -0.51284 0)
(-0.218697 -0.0284247 0)
(-0.0924588 0.110847 0)
(-0.0533421 0.0926643 0)
(-0.0311651 0.0546832 0)
(-0.0264895 0.0285347 0)
(-0.0316111 0.0117741 0)
(-0.0404699 0.000829717 0)
(-0.0508837 -0.00646816 0)
(-0.0643957 -0.0109875 0)
(-0.0794942 -0.0135268 0)
(-0.0950775 -0.0151862 0)
(-0.110056 -0.0170854 0)
(-0.123361 -0.0195087 0)
(-0.134032 -0.0222159 0)
(-0.141924 -0.0248208 0)
(-0.147941 -0.0267777 0)
(-0.153035 -0.0281117 0)
(-0.157736 -0.0289345 0)
(-0.162128 -0.0293296 0)
(-0.166088 -0.0293153 0)
(-0.169418 -0.0288797 0)
(-0.171896 -0.0279883 0)
(-0.173279 -0.0265829 0)
(-0.173344 -0.0245657 0)
(-0.171951 -0.0217687 0)
(-0.16911 -0.017923 0)
(-0.164988 -0.0126665 0)
(-0.159732 -0.00568371 0)
(-0.153627 0.00300737 0)
(-0.147938 0.0128901 0)
(-0.14175 0.0236319 0)
(-0.133674 0.0360196 0)
(-0.122058 0.05094 0)
(-0.10621 0.0691629 0)
(-0.0841607 0.0934563 0)
(-0.0398164 0.126808 0)
(0.101251 0.134948 0)
(-0.460992 0.0226279 0)
(0.125062 -0.184451 0)
(-0.387304 -0.297254 0)
(-0.342924 -0.0966968 0)
(-0.264565 0.0515152 0)
(-0.210915 0.083689 0)
(-0.178832 0.0747734 0)
(-0.162609 0.0612628 0)
(-0.156661 0.0512273 0)
(-0.156748 0.0459524 0)
(-0.159991 0.0452188 0)
(-0.16435 0.0481504 0)
(-0.168524 0.0537199 0)
(-0.17187 0.0607088 0)
(-0.17419 0.067231 0)
(-0.175941 0.0714717 0)
(-0.177761 0.0730798 0)
(-0.18008 0.0729747 0)
(-0.182914 0.0721296 0)
(-0.186079 0.0708811 0)
(-0.189398 0.0691534 0)
(-0.192726 0.066791 0)
(-0.195939 0.0636806 0)
(-0.198926 0.0597315 0)
(-0.201586 0.0548922 0)
(-0.203827 0.0492471 0)
(-0.205561 0.0431439 0)
(-0.206693 0.0372364 0)
(-0.207073 0.0323526 0)
(-0.206468 0.0292369 0)
(-0.204513 0.0282883 0)
(-0.20044 0.029169 0)
(-0.193874 0.0304236 0)
(-0.185353 0.0315285 0)
(-0.173147 0.0335773 0)
(-0.155353 0.036727 0)
(-0.129204 0.0394433 0)
(-0.0892632 0.0403049 0)
(-0.0253872 0.0457212 0)
(0.165432 0.0760199 0)
(-0.358937 0.0944973 0)
(1.14648 -0.0111738 0)
(-0.294427 -0.32276 0)
(-0.352632 -0.233897 0)
(-0.351943 -0.149522 0)
(-0.328212 -0.108069 0)
(-0.296484 -0.0994424 0)
(-0.269077 -0.101639 0)
(-0.249138 -0.107439 0)
(-0.235802 -0.115345 0)
(-0.227159 -0.125403 0)
(-0.221506 -0.137888 0)
(-0.217607 -0.152541 0)
(-0.214665 -0.167887 0)
(-0.21237 -0.181423 0)
(-0.210856 -0.190804 0)
(-0.210425 -0.195727 0)
(-0.21117 -0.197436 0)
(-0.212918 -0.197292 0)
(-0.215451 -0.19614 0)
(-0.218682 -0.194282 0)
(-0.222672 -0.191687 0)
(-0.227562 -0.18816 0)
(-0.23351 -0.183443 0)
(-0.240675 -0.177286 0)
(-0.249173 -0.169502 0)
(-0.258984 -0.160026 0)
(-0.269797 -0.148959 0)
(-0.280868 -0.136578 0)
(-0.291003 -0.123274 0)
(-0.298694 -0.109395 0)
(-0.30238 -0.0951227 0)
(-0.300539 -0.080572 0)
(-0.292896 -0.0668584 0)
(-0.28079 -0.0550619 0)
(-0.265098 -0.0446006 0)
(-0.245297 -0.0351504 0)
(-0.214487 -0.0250173 0)
(-0.163466 -0.00374643 0)
(-0.147803 0.0436266 0)
(-0.565925 0.0969952 0)
)
;

boundaryField
{
    floor
    {
        type            noSlip;
    }
    ceiling
    {
        type            noSlip;
    }
    sWall
    {
        type            noSlip;
    }
    nWall
    {
        type            noSlip;
    }
    sideWalls
    {
        type            empty;
    }
    glass1
    {
        type            noSlip;
    }
    glass2
    {
        type            noSlip;
    }
    sun
    {
        type            noSlip;
    }
    Table_master
    {
        type            noSlip;
    }
    Table_slave
    {
        type            noSlip;
    }
    inlet
    {
        type            fixedValue;
        value           uniform (0.5 0 0);
    }
    outlet
    {
        type            zeroGradient;
    }
}


// ************************************************************************* //
