/*--------------------------------*- C++ -*----------------------------------*\
  =========                 |
  \\      /  F ield         | OpenFOAM: The Open Source CFD Toolbox
   \\    /   O peration     | Website:  https://openfoam.org
    \\  /    A nd           | Version:  6
     \\/     M anipulation  |
\*---------------------------------------------------------------------------*/
FoamFile
{
    version     2.0;
    format      ascii;
    class       volScalarField;
    location    "30599.9999980356333";
    object      nut;
}
// * * * * * * * * * * * * * * * * * * * * * * * * * * * * * * * * * * * * * //

dimensions      [0 2 -1 0 0 0 0];

internalField   nonuniform List<scalar> 
778
(
0.00089434
0.000953095
0.000949604
0.000990796
0.00102854
0.00106281
0.00109472
0.00112547
0.00115644
0.00118935
0.00122074
0.00125057
0.00127997
0.00131159
0.00134458
0.000632174
0.0009056
0.000912891
0.000890778
0.000853785
0.000804349
0.00075511
0.000709792
0.000668959
0.000632349
0.000599716
0.000570397
0.000543683
0.000518747
0.000494478
0.000469103
0.000448026
0.00040555
0.00131083
0.00258128
0.00226516
0.00261456
0.00286809
0.00313682
0.00340481
0.00365174
0.00385045
0.00396611
0.00403409
0.00400606
0.00380632
0.00331144
0.00241849
0.00147225
0.00140366
0.00134364
0.00113133
0.00192704
0.00267122
0.00311078
0.00313133
0.00247077
0.00211316
0.00186516
0.00167686
0.00152712
0.00139954
0.00128677
0.00118182
0.00107913
0.000986987
0.00090754
0.0010221
0.000514224
0.0016641
0.00360465
0.00267227
0.0038225
0.00427133
0.00465106
0.00499583
0.00529915
0.00555603
0.00575742
0.00595253
0.00615793
0.00634682
0.00645949
0.00638548
0.00584731
0.00427689
0.0016482
0.00142677
0.00305167
0.00425963
0.00483193
0.00439552
0.00115984
0.00100855
0.000891772
0.00080037
0.000727633
0.000668938
0.000621083
0.000582174
0.000551843
0.000606598
0.00071353
0.00112958
0.000585085
0.00200536
0.00485888
0.00255729
0.00429814
0.0049628
0.00531843
0.00557984
0.00577312
0.00591723
0.00603394
0.0061999
0.0064805
0.00689017
0.00740558
0.00792399
0.00817997
0.00768257
0.00573474
0.00164116
0.00379653
0.00565002
0.00659386
0.00682842
0.00583128
0.00132029
0.001201
0.00110865
0.00103178
0.000966251
0.000907403
0.000851933
0.00079686
0.000737399
0.000688801
0.000713826
0.00122247
0.000644394
0.00234214
0.00643383
0.00258047
0.00408601
0.00510799
0.00541147
0.00552176
0.00552614
0.00547123
0.00542244
0.00549168
0.00576416
0.00626453
0.00697336
0.00779547
0.0085529
0.0090329
0.0090265
0.00809997
0.00824017
0.00842929
0.00845699
0.00828654
0.00775781
0.0061751
0.00533477
0.004759
0.00429166
0.00383268
0.00338777
0.00295239
0.00251761
0.0020711
0.00159098
0.00121424
0.00121223
0.00095963
0.000768285
0.00101071
0.00097294
0.00267381
0.00819726
0.00303856
0.00344571
0.00489434
0.00523121
0.00520472
0.00501766
0.00474999
0.00452907
0.00452396
0.00480961
0.00537999
0.00620211
0.00716381
0.00812451
0.00894095
0.00946232
0.00955664
0.00946024
0.00929261
0.00905531
0.00875038
0.00836216
0.00779497
0.00724814
0.00675142
0.00627163
0.005753
0.00519884
0.00460683
0.0039721
0.00329071
0.0025679
0.00191398
0.00143725
0.00111648
0.00124657
0.00216063
0.00116496
0.00301239
0.00982875
0.00404995
0.00282321
0.00439771
0.00494845
0.0048879
0.00458509
0.00414554
0.00375884
0.00374771
0.00410873
0.00476207
0.00568175
0.00672688
0.00776088
0.00864992
0.00928611
0.00957833
0.00955512
0.00934534
0.00902796
0.00866465
0.00830223
0.00795161
0.00762967
0.00732706
0.00700433
0.00661412
0.00614425
0.00558797
0.0049427
0.00421087
0.00341109
0.00262984
0.00190332
0.00140278
0.00124834
0.00219841
0.00137069
0.00330375
0.0110654
0.00552286
0.0026891
0.00348336
0.00438659
0.00451327
0.00426467
0.00374471
0.00321928
0.00333865
0.00381653
0.00454782
0.00549593
0.00658227
0.00766476
0.00858682
0.00922662
0.00951664
0.00947793
0.00920685
0.00880728
0.00837748
0.00799629
0.00770246
0.00749249
0.00732862
0.00715065
0.00690264
0.00655551
0.00609582
0.00552082
0.00483574
0.00406083
0.0032557
0.00244708
0.0017171
0.00115217
0.00310715
0.00178363
0.00339344
0.0104828
0.00683848
0.00347916
0.00236227
0.0028933
0.00338707
0.00342977
0.00302878
0.0029443
0.00325038
0.00381275
0.0046042
0.00561043
0.00674946
0.00786524
0.00878353
0.00937324
0.00957951
0.0094359
0.00904297
0.00852754
0.00801584
0.00760746
0.00734832
0.00722115
0.00716337
0.00709478
0.00695173
0.0067006
0.00632816
0.00583286
0.00522062
0.00450789
0.00372691
0.00285317
0.00167122
0.00145713
0.00466714
0.00205093
0.00332463
0.00845623
0.00706662
0.00477793
0.00315482
0.0024417
0.00231162
0.00242022
0.00262419
0.00294848
0.00340848
0.00404178
0.00490317
0.00598861
0.00718971
0.00832066
0.00918997
0.00966724
0.00971569
0.00939297
0.00882548
0.00817176
0.00758744
0.00718691
0.0070036
0.0069824
0.00702195
0.00702092
0.00692749
0.00672333
0.00640232
0.00596369
0.00541047
0.00474829
0.00395381
0.00272759
0.00122886
0.00287514
0.00443105
0.00207048
0.00311416
0.00722915
0.00683471
0.00546944
0.00420848
0.00338746
0.00298121
0.0028891
0.00305703
0.00336622
0.00381581
0.00448447
0.00543603
0.00662598
0.00788739
0.00899282
0.00974005
0.0100159
0.00981811
0.0092447
0.00846556
0.0076839
0.00708853
0.00679001
0.00675649
0.00685487
0.00695283
0.00695444
0.00685518
0.00665696
0.00635605
0.00594664
0.00542389
0.00477493
0.00390261
0.00231541
0.00140886
0.00322885
0.00420536
0.00203818
0.00283564
0.0065196
0.00659483
0.00579138
0.00492576
0.0042744
0.00389099
0.00375413
0.00378814
0.00397433
0.00438689
0.00513395
0.00623385
0.00755067
0.00883655
0.00982783
0.0103344
0.0102877
0.00974396
0.00886123
0.00787475
0.00704831
0.00658034
0.00648816
0.0065728
0.00670192
0.00678498
0.00676061
0.00664505
0.00644533
0.00615391
0.00575164
0.00522186
0.00453358
0.00359226
0.00213546
0.00153747
0.00332639
0.00456505
0.00201315
0.00258614
0.00583417
0.00629952
0.00591893
0.00536282
0.004896
0.00458573
0.00443391
0.00438807
0.00454652
0.00507043
0.00604663
0.00737634
0.00879871
0.00999619
0.0107079
0.0108018
0.01029
0.00931673
0.00812216
0.00703611
0.0063415
0.00604303
0.00601588
0.00610718
0.00621735
0.00628232
0.00625936
0.00614228
0.00594165
0.00564319
0.00521403
0.00461109
0.00380878
0.00285537
0.00192311
0.00171577
0.00342008
0.00470812
0.00213474
0.00259516
0.00579088
0.00643785
0.00599184
0.00554129
0.00517256
0.00490662
0.004733
0.00472379
0.00510966
0.00603465
0.00741708
0.00897315
0.0103402
0.0112028
0.0113807
0.0108612
0.00976744
0.0083706
0.00701487
0.00603487
0.00547234
0.00522274
0.00517124
0.00521901
0.00528946
0.00533241
0.00531481
0.00519066
0.0049714
0.0046244
0.00408862
0.0033345
0.00249755
0.00189264
0.00172036
0.00210261
0.00380784
0.00472872
0.00218269
0.00234228
0.00243572
0.00359223
0.0042191
0.00441193
0.00441349
0.00436889
0.00444747
0.00498476
0.00613493
0.00775479
0.00950032
0.0109852
0.0118908
0.0120375
0.0114008
0.0101384
0.0084867
0.00691037
0.00568579
0.00488163
0.00443493
0.0042363
0.00416763
0.00414519
0.00412224
0.00407814
0.00400248
0.00385493
0.00361062
0.00324404
0.00271957
0.00213053
0.00173712
0.00170611
0.00201371
0.0027047
0.00425555
0.00507637
0.00218123
0.000807159
0.00146398
0.00225792
0.00289564
0.00363379
0.00489055
0.00674144
0.00879898
0.010671
0.0120619
0.012771
0.0126748
0.0117909
0.0102238
0.00837147
0.00662842
0.00526328
0.00436737
0.00388881
0.00366181
0.00354172
0.00344878
0.0033483
0.00323047
0.00309891
0.00296154
0.0028197
0.00264048
0.00241662
0.00214245
0.00189293
0.00182918
0.00205068
0.00253212
0.00322212
0.00404712
0.00451004
0.00207833
0.00149731
0.00207244
0.00302184
0.00472235
0.00704014
0.00936973
0.0111862
0.0125009
0.0132909
0.0134945
0.0130114
0.0117516
0.00992203
0.00788647
0.00605371
0.00471719
0.00396139
0.00361937
0.00347185
0.00338843
0.00331422
0.003231
0.0031374
0.00303944
0.00294443
0.00285631
0.00277218
0.00267989
0.0025742
0.00246163
0.00237382
0.00239485
0.00262153
0.00307453
0.00366788
0.00417441
0.00425138
0.00202232
0.00275785
0.00667424
0.00612636
0.00546397
0.00694713
0.00928394
0.0112673
0.0126162
0.0133355
0.0135177
0.0132315
0.0124392
0.0111075
0.00930021
0.00730194
0.00556201
0.00444414
0.00391984
0.00372092
0.00364005
0.00358273
0.00351569
0.00343222
0.00333716
0.00324061
0.00315469
0.00309106
0.00305824
0.00305819
0.00308152
0.00310759
0.00313472
0.00318856
0.00331046
0.00355774
0.00398438
0.00460754
0.00536175
0.0056289
0.00219922
0.00263899
0.00509439
0.00656147
0.00838239
0.00930909
0.0102775
0.0108501
0.0109997
0.0108005
0.0103
0.00950759
0.00841422
0.00707586
0.00569562
0.00457574
0.00389799
0.00359246
0.00348464
0.00345108
0.00343053
0.00339725
0.00334378
0.00327233
0.0031907
0.003111
0.00304937
0.0030249
0.00305615
0.0031555
0.00332173
0.00352703
0.00371266
0.0038813
0.00409208
0.0044032
0.00486387
0.00551009
0.00646185
0.00614432
0.00238294
0.00247343
0.00212003
0.00210962
0.00217142
0.00222281
0.00215773
0.00202933
0.00187756
0.00172266
0.00157208
0.0014287
0.00129756
0.00118865
0.00111265
0.00107228
0.00105897
0.00105996
0.00106714
0.00107647
0.00108649
0.00109717
0.00110952
0.00112526
0.00114658
0.00117568
0.00121411
0.001262
0.00131776
0.00137855
0.00144155
0.00150515
0.00157001
0.00163607
0.00170541
0.00178219
0.00186897
0.00196469
0.00207081
0.00219425
0.00216914
)
;

boundaryField
{
    floor
    {
        type            nutkWallFunction;
        Cmu             0.09;
        kappa           0.41;
        E               9.8;
        value           nonuniform List<scalar> 
36
(
0.000160544
7.63577e-05
0.000109549
0.000110416
0.000107783
0.000103362
9.74188e-05
9.14564e-05
8.59278e-05
8.09101e-05
7.638e-05
7.23152e-05
6.86402e-05
6.52716e-05
6.21087e-05
5.90123e-05
5.57545e-05
5.30315e-05
4.74938e-05
4.74937e-05
6.15327e-05
7.0484e-05
7.78738e-05
9.30573e-05
0.000121991
0.000117538
0.000160544
0.000174992
0.000167246
0.000160435
7.63577e-05
0.000160435
0.000136054
0.000194683
0.000169861
0.000193898
)
;
    }
    ceiling
    {
        type            nutkWallFunction;
        Cmu             0.09;
        kappa           0.41;
        E               9.8;
        value           nonuniform List<scalar> 
43
(
0.000284291
0.000246364
0.000245241
0.000251928
0.000257477
0.000250479
0.000236582
0.000220023
0.000202967
0.000186223
0.000170107
0.000155204
0.00014269
0.00013388
0.000129178
0.000127621
0.000127739
0.000128582
0.000129678
0.00013085
0.000132096
0.000133528
0.000135345
0.000137796
0.000141135
0.000145539
0.00015102
0.000157391
0.000164323
0.000171484
0.000178687
0.000185996
0.00019341
0.000201146
0.000209655
0.000219215
0.000229706
0.000241277
0.000254637
0.000251829
0.000270488
0.000280473
0.000177605
)
;
    }
    sWall
    {
        type            nutkWallFunction;
        Cmu             0.09;
        kappa           0.41;
        E               9.8;
        value           nonuniform List<scalar> 9(0.000373888 0.000352053 0.000322925 0.000296582 0.000297536 0.000270577 0.00031443 0.000301915 0.000284392);
    }
    nWall
    {
        type            nutkWallFunction;
        Cmu             0.09;
        kappa           0.41;
        E               9.8;
        value           nonuniform List<scalar> 
14
(
0.000117545
0.000139971
0.000163545
0.000241146
0.00023766
0.000235013
0.000248303
0.000253434
0.0002531
0.00024191
0.000235911
0.000255512
0.000274867
0.000251867
)
;
    }
    sideWalls
    {
        type            empty;
    }
    glass1
    {
        type            nutkWallFunction;
        Cmu             0.09;
        kappa           0.41;
        E               9.8;
        value           nonuniform List<scalar> 9(0.000108251 0.000156887 0.000196745 0.000234361 0.000270808 0.000306161 0.00034178 0.000372101 0.000381388);
    }
    glass2
    {
        type            nutkWallFunction;
        Cmu             0.09;
        kappa           0.41;
        E               9.8;
        value           nonuniform List<scalar> 2(0.000209859 0.000239146);
    }
    sun
    {
        type            nutkWallFunction;
        Cmu             0.09;
        kappa           0.41;
        E               9.8;
        value           nonuniform List<scalar> 
14
(
0.00010821
0.000115185
0.000114771
0.000119634
0.000124069
0.00012808
0.000131801
0.000135376
0.000138964
0.000142766
0.000146381
0.000149807
0.000153173
0.000156785
)
;
    }
    Table_master
    {
        type            nutkWallFunction;
        Cmu             0.09;
        kappa           0.41;
        E               9.8;
        value           nonuniform List<scalar> 9(0.000139347 0.000121716 0.000107899 9.69379e-05 8.81105e-05 8.09109e-05 7.49851e-05 7.01262e-05 6.63113e-05);
    }
    Table_slave
    {
        type            nutkWallFunction;
        Cmu             0.09;
        kappa           0.41;
        E               9.8;
        value           nonuniform List<scalar> 9(0.000157766 0.000144098 0.000133412 0.000124441 0.000116733 0.00010976 0.000103138 9.65143e-05 8.93017e-05);
    }
    inlet
    {
        type            calculated;
        value           uniform 0.000167705;
    }
    outlet
    {
        type            calculated;
        value           nonuniform List<scalar> 2(0.00275785 0.00667424);
    }
}


// ************************************************************************* //
