/*--------------------------------*- C++ -*----------------------------------*\
  =========                 |
  \\      /  F ield         | OpenFOAM: The Open Source CFD Toolbox
   \\    /   O peration     | Website:  https://openfoam.org
    \\  /    A nd           | Version:  6
     \\/     M anipulation  |
\*---------------------------------------------------------------------------*/
FoamFile
{
    version     2.0;
    format      ascii;
    class       surfaceScalarField;
    location    "28299.9999984037968";
    object      phi;
}
// * * * * * * * * * * * * * * * * * * * * * * * * * * * * * * * * * * * * * //

dimensions      [1 0 -1 0 0 0 0];

internalField   nonuniform List<scalar> 
1482
(
-0.00279981
0.00286385
-0.00348409
0.000684281
-0.00414485
0.000660761
-0.00475904
0.000614186
-0.00528055
0.000521514
-0.00569264
0.000412091
-0.00598407
0.000291427
-0.00614175
0.000157682
-0.00614832
6.57245e-06
-0.00597778
-0.000170544
-0.00560012
-0.00037766
-0.00498425
-0.00061587
-0.00405993
-0.000924321
-0.00258081
-0.00147913
-0.00257789
-6.51134e-05
6.99671e-05
0.000778763
-0.000843877
0.00143167
-0.000652904
0.00183158
-0.000399912
0.00205369
-0.000222112
0.00215832
-0.00010463
0.0022056
-4.72739e-05
0.00222824
-2.2641e-05
0.00223784
-9.60694e-06
0.00223866
-8.16381e-07
0.00223158
7.08361e-06
0.00221257
1.90023e-05
0.00216832
4.42566e-05
0.0020656
0.000102721
0.00184903
0.00021657
0.00149167
0.000357356
0.00102029
0.000471382
0.00102673
-0.00204041
0.00507458
-0.00290858
0.00155245
-0.00369447
0.00144664
-0.00434558
0.0012653
-0.00488295
0.00105889
-0.00531188
0.000841024
-0.00563059
0.000610133
-0.00583225
0.000359345
-0.00590617
8.04897e-05
-0.00584446
-0.000232256
-0.00564127
-0.000580849
-0.00528526
-0.000971879
-0.00477524
-0.00143435
-0.00428927
-0.00196509
-0.0047054
-0.00216176
-0.00311856
-0.0015814
-0.00163467
-0.0014782
-0.00161983
0.00131737
-0.00123719
0.00166114
-0.00118764
0.00191263
-0.000904402
0.00210387
-0.000591144
0.00221134
-0.000329586
0.00222037
-0.000113663
0.00222246
-4.93621e-05
0.00222412
-2.42985e-05
0.00222505
-1.05409e-05
0.002225
-7.62443e-07
0.00222358
8.50089e-06
0.00221935
2.32327e-05
0.0022067
5.69056e-05
0.00214476
0.000164662
0.00189517
0.000466158
0.00146585
0.000786683
0.000902386
0.00103484
0.001946
-0.00148831
0.00682081
-0.00235927
0.00242341
-0.00312929
0.00221667
-0.00371357
0.00184958
-0.00418432
0.00152963
-0.00455588
0.00121259
-0.00483007
0.000884321
-0.00500364
0.000532917
-0.00507017
0.000147021
-0.00502056
-0.00028187
-0.00484403
-0.000757386
-0.00453311
-0.00128279
-0.00411864
-0.00184882
-0.00372133
-0.0023624
-0.00330108
-0.00258201
-0.00236963
-0.00251285
-0.00127535
-0.00257249
-0.00288235
0.00114988
-0.00237262
0.00165302
-0.00169078
0.00195111
-0.00120249
0.00214365
-0.000783689
0.00217338
-0.00035932
0.00205988
0.00201067
0.00198652
0.00197614
0.00197553
0.00198418
0.00200757
0.00206463
0.00222945
0.00187121
0.000824398
0.00142365
0.00123424
0.000804182
0.00165431
0.00277621
-0.00110613
0.00825814
-0.00192813
0.00324542
-0.00257023
0.00285877
-0.00303062
0.00230997
-0.00339821
0.00189722
-0.00368705
0.00150142
-0.00390016
0.00109743
-0.0040357
0.000668464
-0.00408617
0.000197486
-0.00403835
-0.000329693
-0.00387993
-0.000915803
-0.00360681
-0.00155592
-0.00324159
-0.00221404
-0.00282013
-0.00278386
-0.00228119
-0.00312095
-0.00156192
-0.00323212
-0.000874061
-0.00326035
-0.000695316
-0.00306109
0.00144146
-0.00212134
0.00137485
-0.002306
0.00169094
-0.00200687
0.00200367
-0.00151522
0.00226997
-0.00105
0.00254615
-0.000635498
0.00286052
-0.000314521
0.00302808
-0.000167715
0.00309318
-6.52565e-05
0.00307637
1.66644e-05
0.00298645
8.97589e-05
0.00282452
0.000161776
0.00258286
0.000241514
0.00223859
0.000344112
0.00173449
0.000503946
0.00159864
0.000960253
0.00127197
0.00156091
0.00074623
0.00218004
0.00355674
-0.000803841
0.00945517
-0.0015801
0.00402167
-0.00204885
0.00332752
-0.00236462
0.00262575
-0.00260902
0.00214162
-0.00279455
0.00168696
-0.00292625
0.00122913
-0.00300486
0.00074707
-0.00302383
0.000216464
-0.00296658
-0.000386948
-0.00281985
-0.00106253
-0.00257674
-0.00179903
-0.00224384
-0.00254694
-0.00182827
-0.00319943
-0.00132376
-0.00362546
-0.000747829
-0.00380805
-0.000216951
-0.00379122
0.000260374
-0.00353842
0.00112198
-0.00298294
0.00148857
-0.0026726
0.00174802
-0.00226631
0.00200079
-0.00176799
0.00223086
-0.00128008
0.00244534
-0.000849973
0.0026468
-0.00051598
0.00275731
-0.000278225
0.00279395
-0.000101899
0.00276844
4.21722e-05
0.00268723
0.00017097
0.00255289
0.00029612
0.00236434
0.000430065
0.00211936
0.000589092
0.00182615
0.000797148
0.00162186
0.00116455
0.00148244
0.00170033
0.00130627
0.00235621
0.00229525
0.00256776
0.00132757
0.00100261
0.0018734
-0.00051698
0.00199252
-0.000575919
0.0104775
-0.00132494
0.00477069
-0.00158469
0.00358728
-0.00175071
0.00279176
-0.00186474
0.00225564
-0.00193622
0.00175845
-0.00197165
0.00126455
-0.00197531
0.000750736
-0.00194403
0.000185182
-0.00185616
-0.000474817
-0.00170198
-0.00121671
-0.00147163
-0.00202938
-0.00116806
-0.00285051
-0.000797019
-0.00357046
-0.000378324
-0.00404415
6.1328e-05
-0.00424769
0.000466387
-0.00419628
0.000840983
-0.00391301
0.00129253
-0.00343449
0.00159203
-0.00297209
0.00179595
-0.00247024
0.00196792
-0.00193996
0.00212003
-0.00143219
0.00225497
-0.000984913
0.00236029
-0.0006213
0.00241894
-0.00033688
0.00243048
-0.000113434
0.00240006
7.2594e-05
0.0023325
0.000238529
0.00223169
0.000396927
0.00210184
0.000559916
0.00195022
0.000740707
0.00179161
0.000955761
0.00170243
0.00125373
0.00176189
0.00164087
0.00197585
0.00214226
0.00221996
0.00232365
0.00172929
0.00149328
0.00080996
0.00040235
0.00290013
-0.000543487
0.0115132
-0.0012438
0.005471
-0.00119231
0.00353578
-0.0012008
0.00280025
-0.00119322
0.00224807
-0.00115977
0.00172499
-0.00110261
0.00120739
-0.00102749
0.000675613
-0.000928828
8.65234e-05
-0.000779795
-0.000623849
-0.00059076
-0.00140575
-0.000351378
-0.00226876
-6.87908e-05
-0.0031331
0.000234656
-0.0038739
0.000543487
-0.00435298
0.000837922
-0.00454213
0.00110065
-0.00445901
0.00133426
-0.00414662
0.00156665
-0.00366688
0.00172708
-0.00313252
0.00182775
-0.00257091
0.00189852
-0.00201073
0.00195505
-0.00148872
0.00200249
-0.00103235
0.00203549
-0.000654308
0.00204825
-0.00034963
0.00203719
-0.000102383
0.00200301
0.00010678
0.00194876
0.000292779
0.00187829
0.0004674
0.00179695
0.000641253
0.00171358
0.000824078
0.0016437
0.00102564
0.00163115
0.00126628
0.00172119
0.00155083
0.0019353
0.00192814
0.00219032
0.00206863
0.00220041
0.00148319
0.00164892
0.000953845
0.00465225
-0.000483648
0.0125323
-0.00105172
0.00603908
-0.000697831
0.00318189
-0.000637175
0.0027396
-0.000568902
0.0021798
-0.000464219
0.00162031
-0.000335097
0.00107827
-0.00018369
0.000524206
5.85823e-06
-0.000103025
0.000224202
-0.000842193
0.000463768
-0.00164531
0.000720743
-0.00252573
0.000976445
-0.0033888
0.00120369
-0.00410114
0.00140182
-0.00455111
0.00156227
-0.00470257
0.00167988
-0.0045766
0.0017594
-0.00422613
0.00181317
-0.00372065
0.0018242
-0.00314354
0.00180055
-0.00254726
0.00176111
-0.0019713
0.00172073
-0.00144834
0.00168677
-0.000998393
0.00165908
-0.000626617
0.00163355
-0.000324102
0.00160522
-7.40441e-05
0.00157175
0.000140241
0.00153339
0.000331146
0.00149151
0.000509276
0.00144945
0.000683313
0.00141379
0.000859737
0.00139622
0.00104321
0.00142154
0.00124096
0.00151966
0.00145271
0.00174108
0.00170672
0.00203795
0.00177177
0.00215434
0.0013668
0.00167194
0.00143625
0.00669237
0.0029769
0.0101426
0.00202148
0.0069945
0.000868527
0.00433484
0.000370099
0.00323802
0.000213111
0.00233678
0.000269521
0.0015639
0.000423599
0.000924189
0.000637779
0.000310026
0.000897339
-0.000362585
0.0011624
-0.00110726
0.00144073
-0.00192364
0.00170703
-0.00279203
0.00193193
-0.0036137
0.00209144
-0.00426065
0.00218002
-0.00463969
0.00220061
-0.00472316
0.00216222
-0.00453821
0.00207855
-0.00414245
0.00196476
-0.00360685
0.00182638
-0.00300516
0.00167546
-0.00239633
0.00152881
-0.00182465
0.00140098
-0.00132051
0.00130002
-0.000897428
0.00122686
-0.000553459
0.0011764
-0.00027364
0.00114119
-3.88373e-05
0.00111587
0.000165561
0.00109692
0.000350096
0.00108215
0.000524049
0.00107162
0.000693844
0.00106825
0.000863112
0.0010787
0.00103275
0.00111754
0.00120212
0.00120678
0.00136348
0.00139689
0.00151661
0.00168269
0.00148597
0.00180937
0.0012401
0.000478223
0.00276739
0.00755647
0.00403149
0.00625131
0.00366763
0.00735836
0.0025422
0.00546028
0.00188898
0.00389124
0.00153242
0.00269334
0.00138761
0.00170871
0.00142154
0.00089026
0.0015962
0.000135367
0.0018485
-0.000614882
0.00212573
-0.00138449
0.00240514
-0.00220304
0.00264924
-0.00303614
0.00281646
-0.00378092
0.00288007
-0.00432426
0.00283714
-0.00459676
0.00270179
-0.0045878
0.00249648
-0.0043329
0.0022456
-0.00389157
0.00197191
-0.00333316
0.00169254
-0.00272579
0.0014247
-0.00212849
0.00118634
-0.00158629
0.000992066
-0.00112624
0.000847887
-0.000753248
0.000752129
-0.000457702
0.000695421
-0.000216932
0.000666594
-1.00104e-05
0.000656771
0.000175384
0.000659004
0.000347863
0.000668398
0.000514655
0.000682172
0.000680069
0.000698908
0.000846376
0.000718069
0.00101359
0.000741015
0.00117917
0.000767202
0.00133729
0.000774701
0.00150911
0.000421768
0.00183887
-0.00084433
0.00250592
-0.00207069
0.00399361
0.00559061
0.00240986
0.00400598
0.00330508
0.00646313
0.00324911
0.00551625
0.00303831
0.00410203
0.00284732
0.00288433
0.00272417
0.00183186
0.00271048
0.000903952
0.00279973
4.61134e-05
0.00296198
-0.000777131
0.0031727
-0.0015952
0.00338975
-0.0024201
0.00355299
-0.00319938
0.0036078
-0.00383574
0.00352783
-0.0042443
0.0033188
-0.00438773
0.00300707
-0.00427608
0.00262723
-0.00395306
0.00221279
-0.00347712
0.00179342
-0.00291379
0.00139304
-0.0023254
0.00103336
-0.00176881
0.000734382
-0.00128731
0.000509743
-0.000901596
0.000357426
-0.000600931
0.000267697
-0.000367972
0.000223425
-0.000172661
0.000210246
3.16895e-06
0.000217736
0.000167894
0.0002384
0.000327199
0.00026718
0.000485876
0.000299842
0.000647406
0.000331119
0.000815099
0.00035284
0.000991868
0.000353534
0.00117848
0.000311635
0.00137919
0.00014088
0.00167988
-0.000438542
0.0024182
-0.00128146
0.00334858
-0.00150462
0.00421656
0.00420328
0.00145724
0.002743
0.00274889
0.00517148
0.00343305
0.00483209
0.00371905
0.00381603
0.00381752
0.00278585
0.00384579
0.00180359
0.00388237
0.000867372
0.00395219
-2.3703e-05
0.00406279
-0.000887735
0.0042031
-0.00173552
0.00432137
-0.00253838
0.00434691
-0.00322492
0.00422839
-0.00371724
0.00395391
-0.00396983
0.00354612
-0.00397995
0.00304498
-0.00377495
0.00249457
-0.00340264
0.00193377
-0.00291633
0.00139696
-0.00237697
0.000911829
-0.00184026
0.000505718
-0.0013627
0.00019801
-0.000979599
-6.70811e-06
-0.000696878
-0.000126289
-0.000481349
-0.000186903
-0.000307358
-0.000210483
-0.00014908
-0.000209285
1.97129e-06
-0.000190319
0.000148928
-0.000157899
0.000294779
-0.000115214
0.000443191
-6.63381e-05
0.00059853
-1.84315e-05
0.000767192
1.51489e-05
0.000958287
9.60679e-06
0.00118402
-8.36971e-05
0.0014725
-0.000356385
0.00195265
-0.000951707
0.00301371
-0.00185455
0.00425141
-0.00196629
0.00432821
0.00236849
0.00217433
0.000794644
0.0029449
0.00440091
0.00359449
0.00418249
0.00416433
0.00324619
0.00449193
0.00245825
0.00466639
0.00162913
0.00478372
0.000750036
0.0048895
-0.000129477
0.00499701
-0.000995251
0.00507561
-0.00181411
0.00505939
-0.00252217
0.00488839
-0.00305393
0.00454043
-0.00336928
0.00403456
-0.00346397
0.00341577
-0.00336118
0.00273495
-0.00309414
0.00204089
-0.00270858
0.00137198
-0.00224741
0.000767786
-0.00177277
0.000256986
-0.00132946
-0.000121898
-0.00098382
-0.000364948
-0.000736548
-0.000501965
-0.00055986
-0.000571621
-0.000411691
-0.000603784
-0.000275193
-0.000612057
-0.000140806
-0.000602832
-7.25373e-06
-0.000578573
0.000124669
-0.000539878
0.000256084
-0.000487361
0.000390673
-0.000423394
0.000534563
-0.000353899
0.000697696
-0.000291069
0.000895456
-0.000259882
0.00115283
-0.000304914
0.00151755
-0.000463912
0.0021118
-0.000674264
0.00322451
-0.00121953
0.00479707
-0.00153805
0.00464709
0.00097548
-0.00157961
0.00261941
0.00111812
0.00170319
0.00335036
0.00195025
0.00435277
0.00224379
0.00485663
0.00195439
0.0051716
0.00131416
0.00540073
0.000520906
0.00558025
-0.00030899
0.00568086
-0.00109585
0.00563996
-0.00177321
0.00540664
-0.00228885
0.00496936
-0.00261666
0.00435612
-0.00275607
0.00361971
-0.00272758
0.00282009
-0.00256157
0.00200722
-0.00228127
0.00122984
-0.00193121
0.000519542
-0.00153712
-7.18599e-05
-0.00118137
-0.000499525
-0.000901798
-0.000761004
-0.000722342
-0.000905266
-0.000592284
-0.000980996
-0.000484124
-0.00101569
-0.000376992
-0.00102697
-0.000263905
-0.00102342
-0.000144353
-0.0010085
-2.21747e-05
-0.000981686
9.78549e-05
-0.000940229
0.000214627
-0.000881525
0.000331968
-0.000804697
0.000457733
-0.000711722
0.000604719
-0.000609482
0.000793211
-0.000512042
0.00105537
-0.000433517
0.00143899
-0.000342905
0.00202123
-6.58552e-05
0.00294777
0.000407457
0.00432416
0.000775303
0.00427968
0.00190207
0.00288117
0.00456917
0.00486968
0.00164973
0.00535612
0.00175735
0.00559258
0.00171794
0.00582442
0.00108232
0.00601293
0.000332397
0.00608054
-0.000376576
0.00595555
-0.000970836
0.00560452
-0.00142217
0.00504002
-0.00172436
0.00430889
-0.00188554
0.00346916
-0.00191635
0.00257893
-0.00183737
0.00169288
-0.00167553
0.000843772
-0.00143217
7.49114e-05
-0.00116236
-0.00054986
-0.000912359
-0.00098514
-0.000746104
-0.00124903
-0.000637911
-0.00140068
-0.000570691
-0.0014804
-0.000512553
-0.00151788
-0.000446623
-0.00152932
-0.000365541
-0.0015245
-0.000268708
-0.0015096
-0.000159253
-0.00148829
-4.3488e-05
-0.00146039
6.99493e-05
-0.00142137
0.000175607
-0.0013658
0.000276388
-0.00128976
0.000381693
-0.00119122
0.000506182
-0.00106947
0.000671446
-0.000921289
0.000907129
-0.000727539
0.0012451
-0.000416264
0.00170978
0.000165364
0.00236611
0.00107362
0.00341611
0.00151011
0.00384345
0.00357308
0.00793049
0.00536757
0.00580988
0.00387797
0.00556167
0.00196617
0.00563425
0.00100979
0.00560005
0.000366647
0.00535765
-0.00013413
0.00489596
-0.00050912
0.00425539
-0.000781601
0.00348917
-0.000958148
0.00264979
-0.00104619
0.00177791
-0.00104449
0.000909333
-0.000968816
7.8643e-05
-0.000844863
-0.000653085
-0.000700451
-0.0012242
-0.000591264
-0.00161933
-0.000517247
-0.00187578
-0.000489676
-0.00202891
-0.000484778
-0.00211828
-0.000481301
-0.00216715
-0.000463639
-0.00218858
-0.000425141
-0.00219015
-0.00036393
-0.00217758
-0.000281252
-0.002156
-0.000180836
-0.0021303
-6.92128e-05
-0.00210386
4.34762e-05
-0.0020746
0.000146325
-0.0020373
0.000239079
-0.00198642
0.000330831
-0.00191498
0.000434779
-0.00181061
0.000567097
-0.00164999
0.000746443
-0.00139531
0.000990211
-0.000981816
0.00129592
-0.000247517
0.00163139
0.00102317
0.00214525
0.00162838
0.00323812
0.00537091
0.00409468
0.00151948
0.00449605
0.00347663
0.00372812
0.00273414
0.0032297
0.00150826
0.00288873
0.000707678
0.00252485
0.000229783
0.00207919
-6.34528e-05
0.00154138
-0.000243794
0.000929166
-0.000345949
0.000258768
-0.00037581
-0.000433652
-0.000352089
-0.00109074
-0.00031175
-0.00165936
-0.000276281
-0.00210343
-0.00025642
-0.00242597
-0.000268764
-0.00264002
-0.00030322
-0.00278106
-0.000348641
-0.00287605
-0.000389757
-0.0029411
-0.000416185
-0.00298319
-0.000421461
-0.00300586
-0.000402367
-0.0030119
-0.000357818
-0.00300426
-0.000288863
-0.00298615
-0.000198976
-0.00296116
-9.42804e-05
-0.0029342
1.64053e-05
-0.00291018
0.000122224
-0.0028869
0.000215765
-0.00285897
0.000302939
-0.00281954
0.000395458
-0.00275715
0.000504862
-0.00264952
0.000638924
-0.00245599
0.000796636
-0.00211677
0.000956432
-0.0015628
0.00107692
-0.000741892
0.0013237
-0.000313377
0.00280898
0.00524166
-0.00262552
-0.00679808
-0.00743188
-0.00747693
-0.00375704
-0.00215538
-0.00168172
0.00140134
-0.000767631
0.0018201
-0.000566573
0.00130726
-0.000643023
0.000784171
-0.000823404
0.000410194
-0.00105766
0.000170821
-0.00134125
3.98111e-05
-0.00167726
-9.95729e-06
-0.00204485
-8.23433e-06
-0.00241441
1.74437e-05
-0.00276121
3.50005e-05
-0.00306002
2.24793e-05
-0.0032906
-2.59085e-05
-0.00345231
-0.000107089
-0.00356501
-0.000190527
-0.00365147
-0.000262148
-0.00372272
-0.000318417
-0.00378179
-0.000356983
-0.00382846
-0.000374647
-0.00386236
-0.00036833
-0.00388401
-0.00033608
-0.00389487
-0.000277989
-0.00389694
-0.000196986
-0.00389186
-9.95288e-05
-0.00387852
2.85524e-06
-0.00385281
9.63145e-05
-0.00381157
0.00017439
-0.00375459
0.000245941
-0.00368012
0.000321091
-0.00358587
0.000410836
-0.00346965
0.000522979
-0.0033242
0.000651453
-0.00315645
0.000788882
-0.00315257
0.00107314
-0.00375667
0.00192773
-0.0038106
0.00286257
0.00162741
-0.00737286
0.00102857
-0.00814292
-0.00670683
-0.00719043
-0.00310784
-0.00566685
-0.000122188
-0.00457446
0.000727787
-0.00398442
0.00071728
-0.00372713
0.000526941
-0.0036616
0.000344717
-0.00370325
0.000212499
-0.00379585
0.000132421
-0.00389878
9.2953e-05
-0.00398781
8.07581e-05
-0.00404995
7.95163e-05
-0.00408753
7.25001e-05
-0.00411622
5.10851e-05
-0.00415004
7.85235e-06
-0.00419615
-6.09945e-05
-0.00425533
-0.00013131
-0.00432642
-0.00019096
-0.0044074
-0.000237279
-0.0044953
-0.000268907
-0.004586
-0.000283755
-0.00467413
-0.000280053
-0.004753
-0.000257139
-0.00481538
-0.000215651
-0.0048548
-0.00015772
-0.00486707
-8.75064e-05
-0.00485249
-1.20419e-05
-0.00480625
4.97705e-05
-0.00472611
9.40157e-05
-0.00460977
0.000129472
-0.00445329
0.000164597
-0.00424908
0.000206741
-0.00398718
0.000261293
-0.00366047
0.000325016
-0.00324588
0.000374572
-0.0025354
0.000362933
-0.000855338
0.000247873
0.000922099
0.00108517
0.00274766
0.00157056
-0.00507137
-0.00811582
-0.00817842
-0.0073962
-0.00663232
-0.00606553
-0.00568579
-0.00544136
-0.00527869
-0.00515611
-0.00504554
-0.0049355
-0.00483159
-0.00474834
-0.00470784
-0.00473603
-0.0048346
-0.00499314
-0.00519856
-0.00543639
-0.00569001
-0.00594094
-0.00616988
-0.00635807
-0.00648886
-0.00654975
-0.00653534
-0.00645919
-0.0063389
-0.00618337
-0.00599313
-0.00576142
-0.00547604
-0.00512805
-0.00473176
-0.00434844
-0.00408152
-0.00297879
)
;

boundaryField
{
    floor
    {
        type            calculated;
        value           nonuniform List<scalar> 
36
(
0
0
0
0
0
0
0
0
0
0
0
0
0
0
0
0
0
0
0
-6.43864e-06
-1.68831e-05
-2.60302e-05
-3.43012e-05
-3.49292e-05
-2.88547e-05
-2.86991e-05
-2.91993e-06
-5.44106e-06
-5.68733e-06
-5.90753e-06
-4.85399e-06
-8.93808e-06
-1.02115e-05
-1.28324e-05
-1.44575e-05
-1.54455e-05
)
;
    }
    ceiling
    {
        type            calculated;
        value           nonuniform List<scalar> 
43
(
-5.79447e-05
-6.48588e-05
-6.33171e-05
-5.94924e-05
-5.434e-05
-4.64926e-05
-3.97634e-05
-3.49618e-05
-3.19115e-05
-3.02592e-05
-2.96785e-05
-2.98936e-05
-3.06135e-05
-3.14964e-05
-3.22336e-05
-3.26801e-05
-3.28002e-05
-3.26697e-05
-3.23041e-05
-3.17047e-05
-3.0903e-05
-2.99772e-05
-2.90412e-05
-2.82103e-05
-2.75641e-05
-2.7127e-05
-2.68724e-05
-2.67397e-05
-2.66453e-05
-2.64938e-05
-2.61956e-05
-2.5692e-05
-2.4957e-05
-2.39932e-05
-2.28306e-05
-2.15295e-05
-2.01718e-05
-1.88043e-05
-1.73375e-05
-1.57862e-05
1.93353e-05
1.51881e-05
-0.000246598
)
;
    }
    sWall
    {
        type            calculated;
        value           nonuniform List<scalar> 9(-0.000140236 -0.000164523 -0.000194258 -0.000225978 -0.000245158 -0.000281091 -0.000423778 -0.000453793 -0.000484048);
    }
    nWall
    {
        type            calculated;
        value           nonuniform List<scalar> 
14
(
-9.04166e-05
-9.76436e-05
-0.00010319
-0.000104779
-0.000117295
-0.000131529
-0.000144811
-0.000150942
-0.000160774
-0.000169614
-0.000184401
-0.000196798
-0.000197905
-0.000215062
)
;
    }
    sideWalls
    {
        type            empty;
        value           nonuniform 0();
    }
    glass1
    {
        type            calculated;
        value           nonuniform List<scalar> 9(-6.40344e-05 -0.000170321 -0.000257922 -0.000331205 -0.000393188 -0.000446393 -0.000492205 -0.000535487 -0.000587169);
    }
    glass2
    {
        type            calculated;
        value           nonuniform List<scalar> 2(-0.000368164 -0.000385805);
    }
    sun
    {
        type            calculated;
        value           uniform 0;
    }
    Table_master
    {
        type            calculated;
        value           nonuniform List<scalar> 9(-1.53993e-07 -1.5411e-07 -1.54142e-07 -1.54162e-07 -1.54175e-07 -1.5418e-07 -1.54178e-07 -1.54164e-07 -1.54111e-07);
    }
    Table_slave
    {
        type            calculated;
        value           nonuniform List<scalar> 9(1.53662e-07 1.53718e-07 1.53717e-07 1.53734e-07 1.53755e-07 1.53799e-07 1.53866e-07 1.53959e-07 1.54087e-07);
    }
    inlet
    {
        type            calculated;
        value           uniform -0.0116483;
    }
    outlet
    {
        type            calculated;
        value           nonuniform List<scalar> 2(0.00984736 0.0122833);
    }
}


// ************************************************************************* //
