/*--------------------------------*- C++ -*----------------------------------*\
  =========                 |
  \\      /  F ield         | OpenFOAM: The Open Source CFD Toolbox
   \\    /   O peration     | Website:  https://openfoam.org
    \\  /    A nd           | Version:  6
     \\/     M anipulation  |
\*---------------------------------------------------------------------------*/
FoamFile
{
    version     2.0;
    format      ascii;
    class       volScalarField;
    location    "100";
    object      alphat;
}
// * * * * * * * * * * * * * * * * * * * * * * * * * * * * * * * * * * * * * //

dimensions      [1 -1 -1 0 0 0 0];

internalField   nonuniform List<scalar> 
459
(
0.00175914
0.00196299
0.0020567
0.00218312
0.00231431
0.00245185
0.00256813
0.0026473
0.00267167
0.00253652
0.0023787
0.00219587
0.00199514
0.00180783
0.00160059
0.000891384
0.00104514
0.00123161
0.001355
0.00137893
0.00134726
0.00126282
0.00117257
0.00109134
0.00102057
0.000959073
0.000905457
0.000858227
0.000816234
0.00077803
0.000741528
0.000703667
0.000662634
0.000598736
0.00220886
0.0058065
0.00587473
0.00684442
0.00775531
0.00842762
0.00905629
0.00963669
0.0101768
0.0103781
0.00997052
0.00922383
0.00798634
0.00613092
0.00397973
0.00178382
0.00150998
0.000864539
0.00228137
0.00377308
0.00498362
0.00568091
0.00552362
0.00377303
0.00308982
0.00265807
0.00235095
0.00212046
0.00194143
0.00180059
0.00167304
0.00153235
0.00139355
0.00126533
0.00124983
0.00066438
0.00257514
0.00798177
0.00737999
0.0082231
0.00866946
0.00898509
0.00932714
0.00989548
0.0107885
0.0115063
0.0116586
0.0113589
0.0106449
0.00914118
0.00696969
0.00433173
0.00167436
0.000928226
0.00225769
0.00399544
0.00583052
0.00706981
0.00665393
0.0017003
0.00147251
0.00128844
0.00114135
0.00102337
0.00092798
0.000850289
0.000788754
0.000745394
0.000861007
0.00103811
0.00139603
0.000701217
0.00292144
0.00983471
0.00786476
0.00857551
0.0085804
0.0085351
0.00858687
0.00914964
0.0102607
0.0112285
0.0117257
0.0117471
0.0113914
0.0105008
0.00893754
0.00665383
0.00352899
0.0018053
0.00213618
0.00344229
0.00553349
0.00763738
0.00899711
0.0083158
0.00192774
0.00173997
0.00159358
0.00147097
0.00135975
0.00125301
0.00114628
0.00103553
0.000911911
0.000851713
0.000983248
0.0015447
0.000724696
0.0032738
0.012079
0.00885146
0.00912681
0.00884404
0.00838777
0.00817916
0.00878231
0.00994354
0.0110512
0.0116804
0.0118134
0.0116184
0.0111403
0.0102449
0.00882457
0.00695945
0.00641707
0.00741611
0.00890454
0.0104727
0.0116843
0.0122741
0.0118942
0.00955898
0.00823606
0.00718958
0.00621101
0.00526893
0.00434988
0.00345106
0.00258692
0.00178382
0.00121004
0.00110922
0.00147898
0.000845087
0.000745193
0.00087605
0.000995983
0.00364719
0.0145376
0.0114511
0.0104126
0.0094559
0.00845952
0.00810476
0.00873794
0.0100168
0.0112253
0.0118965
0.0120698
0.0120376
0.0120113
0.0118239
0.0113832
0.0109148
0.0114046
0.0127924
0.013938
0.0146992
0.0149864
0.0147864
0.0140569
0.012682
0.0112016
0.00970921
0.00828567
0.0069331
0.00564317
0.00441493
0.00327235
0.00227334
0.00158324
0.00140986
0.00150719
0.00112463
0.00101373
0.00145167
0.00105453
0.00394794
0.0159719
0.0144293
0.01198
0.00987112
0.00838327
0.00805938
0.00892505
0.0104352
0.0117488
0.0124318
0.0127506
0.013218
0.0138586
0.0141808
0.0143403
0.0146564
0.0155027
0.0164899
0.0169806
0.0169797
0.0165456
0.0157415
0.0145949
0.0131135
0.0115139
0.00994896
0.00847759
0.00711545
0.00586844
0.00474348
0.00374997
0.0028764
0.00226347
0.00205259
0.00196661
0.0017289
0.00170587
0.0017085
0.00125267
0.00399408
0.0129228
0.0121085
0.0101911
0.00837798
0.0074888
0.00787733
0.00937432
0.0112428
0.0125849
0.0132399
0.0141333
0.0152941
0.0159281
0.0162703
0.0165863
0.0170213
0.0175797
0.0179449
0.0178161
0.0172028
0.0162174
0.0149519
0.0134818
0.0118993
0.0103286
0.0088508
0.00750906
0.00632744
0.00532449
0.00451281
0.00389064
0.00343424
0.00313304
0.00301165
0.00308584
0.00329814
0.00378211
0.00487989
0.00179852
0.00387668
0.00454602
0.00471502
0.00469075
0.0049235
0.00601759
0.00805577
0.0105553
0.0126016
0.013494
0.0143879
0.0154765
0.0163595
0.016744
0.016961
0.017182
0.0173861
0.0174497
0.0171964
0.0165297
0.0154914
0.0141844
0.0127086
0.0111467
0.00957517
0.0080587
0.00663971
0.00535982
0.00428621
0.00349436
0.00300341
0.00275473
0.0026623
0.00265717
0.00268954
0.00272542
0.00272042
0.00263133
0.00246137
0.00164404
0.000970312
0.00266417
0.00564353
0.00904106
0.011807
0.0135565
0.0142115
0.0140163
0.0144541
0.0150966
0.0154033
0.0155091
0.0155851
0.015619
0.0155127
0.0151576
0.0144872
0.0135068
0.0122854
0.0109139
0.00947523
0.00804035
0.00667103
0.00542242
0.00435412
0.00352797
0.00297512
0.00266834
0.00254064
0.00252536
0.00257576
0.00266001
0.00274655
0.00279856
0.00278593
0.00270762
0.00240051
0.00130513
0.00398015
0.0125524
0.0139896
0.0135693
0.0127612
0.0118812
0.0113474
0.0111802
0.0111474
0.0110582
0.0109679
0.0109375
0.0109276
0.010851
0.0106193
0.0101725
0.00950165
0.00864602
0.0076747
0.0066642
0.00568346
0.00478703
0.00401417
0.00339128
0.00293178
0.00263062
0.00246383
0.00239844
0.00240522
0.00246458
0.00256333
0.0026851
0.00280057
0.00287956
0.00285352
0.00279226
0.00201243
0.00133304
0.0033288
0.00349624
0.00364919
0.00377553
0.00322083
0.00276288
0.00248518
0.00226707
0.00207687
0.00192593
0.00182658
0.00176418
0.00172092
0.0016837
0.00164282
0.00159139
0.00152567
0.00144611
0.00135765
0.00126755
0.00118258
0.00110713
0.00104307
0.000990739
0.000949921
0.000920478
0.000902373
0.000895461
0.000899558
0.000914842
0.000942208
0.000983178
0.00103945
0.001112
0.00119867
0.00130363
0.00130814
0.00118217
0.00111289
0.0012586
)
;

boundaryField
{
    floor
    {
        type            compressible::alphatWallFunction;
        Prt             0.85;
        value           nonuniform List<scalar> 
29
(
0.000224314
0.000126813
0.000148547
0.000174417
0.000191291
0.000194546
0.000190245
0.000178711
0.000166287
0.000155011
0.000145109
0.000136439
0.000128828
0.00012208
0.000116044
0.00011052
0.000105213
9.96745e-05
9.36317e-05
8.413e-05
8.4129e-05
9.38926e-05
9.93192e-05
0.000102761
0.000224312
0.000126811
0.000122975
0.00013204
0.000251454
)
;
    }
    ceiling
    {
        type            compressible::alphatWallFunction;
        Prt             0.85;
        value           nonuniform List<scalar> 
43
(
0.000445129
0.000465749
0.000484496
0.000500033
0.000431951
0.00037482
0.000339694
0.000311812
0.000287263
0.000267614
0.000254591
0.000246376
0.000240663
0.000235734
0.000230307
0.000223455
0.000214662
0.000203958
0.000191976
0.00017968
0.00016799
0.000157526
0.000148576
0.000141213
0.000135434
0.000131244
0.000128655
0.000127658
0.000128231
0.000130397
0.000134273
0.000140058
0.000147961
0.000158084
0.000170083
0.000184493
0.000185139
0.000167842
0.000158236
0.000178271
0.000512415
0.000593076
0.000524565
)
;
    }
    sWall
    {
        type            compressible::alphatWallFunction;
        Prt             0.85;
        value           uniform 0.000443846;
    }
    nWall
    {
        type            compressible::alphatWallFunction;
        Prt             0.85;
        value           nonuniform List<scalar> 6(0.000141461 0.000149668 0.000177096 0.0001844 0.000188206 0.000177949);
    }
    sideWalls
    {
        type            empty;
    }
    glass1
    {
        type            compressible::alphatWallFunction;
        Prt             0.85;
        value           nonuniform List<scalar> 9(0.000238721 0.000296556 0.000342856 0.000386085 0.00042959 0.000475212 0.000511679 0.00051743 0.000503592);
    }
    glass2
    {
        type            compressible::alphatWallFunction;
        Prt             0.85;
        value           nonuniform List<scalar> 2(0.000248676 0.000228541);
    }
    sun
    {
        type            compressible::alphatWallFunction;
        Prt             0.85;
        value           nonuniform List<scalar> 
14
(
0.000245366
0.000272117
0.00028432
0.000300689
0.00031757
0.000335158
0.000349943
0.000359966
0.000363033
0.000345921
0.000325811
0.000302336
0.000276322
0.000251787
)
;
    }
    heatsource1
    {
        type            compressible::alphatWallFunction;
        Prt             0.85;
        value           nonuniform List<scalar> 3(0.000105927 0.000124813 0.000141841);
    }
    heatsource2
    {
        type            compressible::alphatWallFunction;
        Prt             0.85;
        value           nonuniform List<scalar> 4(0.000248929 0.000212479 0.000212476 0.000234432);
    }
    Table_master
    {
        type            compressible::alphatWallFunction;
        Prt             0.85;
        value           nonuniform List<scalar> 9(0.000237894 0.000207443 0.000182451 0.000162189 0.000145721 0.000132244 0.000121148 0.000112275 0.000105973);
    }
    Table_slave
    {
        type            compressible::alphatWallFunction;
        Prt             0.85;
        value           nonuniform List<scalar> 9(0.000267858 0.000243158 0.000223698 0.000207247 0.000192191 0.000177609 0.000162887 0.000147442 0.000129972);
    }
    inlet
    {
        type            fixedValue;
        value           uniform 1.94e-05;
    }
    outlet
    {
        type            zeroGradient;
    }
}


// ************************************************************************* //
