/*--------------------------------*- C++ -*----------------------------------*\
  =========                 |
  \\      /  F ield         | OpenFOAM: The Open Source CFD Toolbox
   \\    /   O peration     | Website:  https://openfoam.org
    \\  /    A nd           | Version:  6
     \\/     M anipulation  |
\*---------------------------------------------------------------------------*/
FoamFile
{
    version     2.0;
    format      ascii;
    class       volScalarField;
    location    "100";
    object      nut;
}
// * * * * * * * * * * * * * * * * * * * * * * * * * * * * * * * * * * * * * //

dimensions      [0 2 -1 0 0 0 0];

internalField   nonuniform List<scalar> 
459
(
0.00149983
0.00167193
0.00175163
0.00185925
0.00197095
0.00208804
0.00218703
0.00225448
0.0022755
0.00216116
0.00202708
0.00187152
0.00170058
0.00154105
0.00136455
0.000762594
0.000893882
0.00105313
0.00115865
0.0011793
0.00115238
0.00108029
0.00100322
0.000933833
0.000873386
0.00082086
0.000775068
0.000734732
0.000698871
0.000666248
0.000635078
0.000602746
0.00056771
0.000513131
0.00188447
0.00494606
0.0050035
0.0058292
0.00660479
0.00717708
0.00771181
0.00820568
0.00866707
0.00884232
0.00849782
0.00786303
0.00680874
0.00522714
0.00339315
0.00152098
0.00128759
0.000739702
0.00195077
0.0032253
0.00426043
0.00485756
0.00472408
0.00322735
0.00264329
0.00227422
0.00201172
0.00181472
0.00166173
0.00154139
0.00143239
0.00131212
0.00119345
0.00108383
0.00107079
0.000569408
0.0021985
0.00680035
0.00628644
0.00700461
0.00738482
0.00765316
0.00794268
0.00842513
0.00918731
0.00980385
0.00993841
0.00968596
0.0090783
0.00779602
0.00594389
0.00369413
0.00142791
0.000794086
0.00192971
0.00341439
0.0049837
0.00604521
0.00569149
0.0014545
0.00125978
0.00110244
0.00097671
0.000875874
0.000794346
0.000727954
0.000675376
0.000638344
0.000737469
0.000889308
0.00119617
0.000601029
0.00249603
0.00838141
0.00670091
0.00730701
0.0073118
0.0072724
0.00731302
0.00778938
0.00873714
0.00956744
0.00999795
0.0100208
0.00971928
0.00895944
0.00762496
0.00567608
0.00301016
0.00154004
0.00182275
0.00293856
0.00472674
0.00652841
0.0076956
0.00711643
0.00165036
0.00149007
0.00136507
0.00126037
0.00116536
0.00107413
0.000982873
0.000888129
0.000782291
0.000730208
0.000842718
0.00132387
0.000621231
0.00279921
0.0102979
0.00754384
0.0077797
0.00754046
0.00714984
0.00696641
0.00747612
0.00846632
0.00941696
0.00996237
0.0100825
0.00991891
0.00951066
0.00874504
0.00753154
0.00593914
0.00547703
0.00633195
0.00760729
0.00895349
0.00999666
0.0105083
0.0101886
0.00819205
0.00706086
0.00616553
0.00532763
0.00452046
0.00373257
0.0029617
0.00222031
0.00153106
0.00103809
0.0009511
0.00126788
0.000724537
0.000639846
0.000752894
0.000855776
0.00312075
0.0124001
0.00976368
0.00887988
0.00806628
0.00721257
0.00690313
0.00743747
0.00852813
0.0095668
0.0101514
0.0103085
0.0102849
0.0102626
0.0101008
0.00972279
0.00932258
0.00974371
0.0109355
0.0119231
0.0125836
0.0128385
0.0126748
0.0120553
0.0108804
0.00961334
0.00833446
0.00711378
0.00595336
0.00484621
0.00379163
0.00281033
0.00195217
0.00135896
0.00120946
0.0012925
0.000964391
0.000869926
0.0012463
0.000905659
0.00338061
0.0136337
0.0123128
0.0102252
0.00842443
0.00714759
0.00686246
0.00759444
0.00888387
0.0100163
0.0106158
0.0109004
0.0113053
0.0118535
0.012127
0.0122625
0.0125346
0.0132646
0.0141189
0.0145492
0.0145583
0.0141946
0.0135113
0.0125319
0.0112632
0.00989114
0.00854794
0.00728459
0.00611463
0.00504322
0.00407641
0.00322238
0.00247129
0.00194391
0.00176193
0.00168743
0.0014832
0.00146383
0.00146649
0.00107554
0.00342341
0.011051
0.0103504
0.00870977
0.00715202
0.0063811
0.00670143
0.00797221
0.00957229
0.0107369
0.0113192
0.0120988
0.013098
0.0136407
0.0139329
0.0142045
0.0145814
0.0150682
0.0153919
0.0152913
0.0147728
0.0139327
0.0128497
0.0115889
0.01023
0.00888052
0.00761047
0.0064571
0.00544115
0.00457863
0.00388044
0.00334512
0.00295221
0.00269251
0.00258718
0.00264995
0.00283181
0.00324802
0.0041916
0.00154559
0.00332749
0.00389754
0.00403939
0.00401096
0.00419588
0.00511393
0.00683861
0.00897031
0.0107378
0.0115316
0.0123252
0.0132694
0.0140297
0.0143603
0.0145478
0.0147406
0.0149214
0.0149838
0.0147745
0.0142086
0.0133212
0.0122004
0.0109329
0.00959033
0.0082387
0.00693416
0.0057133
0.00461199
0.00368808
0.00300655
0.00258389
0.00236968
0.0022899
0.00228528
0.002313
0.00234395
0.00234
0.00226379
0.00211781
0.0014151
0.000806424
0.00221928
0.00472012
0.00760336
0.00998627
0.0115359
0.0121598
0.0120191
0.0124066
0.0129632
0.013229
0.013322
0.01339
0.0134229
0.0133363
0.0130363
0.0124645
0.0116245
0.0105757
0.00939633
0.00815835
0.00692313
0.00574413
0.00466895
0.00374899
0.0030375
0.00256131
0.00229699
0.00218681
0.00217342
0.00221658
0.00228892
0.00236333
0.0024082
0.00239765
0.00233075
0.0020671
0.00112499
0.00333936
0.0106104
0.0118971
0.0115783
0.0109175
0.0101862
0.00974321
0.00960791
0.00958399
0.00950979
0.009434
0.00940975
0.00940332
0.00933971
0.00914277
0.00876041
0.0081845
0.00744874
0.00661266
0.00574234
0.00489737
0.0041249
0.00345884
0.00292199
0.00252591
0.00226625
0.00212234
0.00206578
0.00207136
0.00212221
0.00220699
0.0023116
0.00241084
0.00247883
0.00245658
0.00240461
0.00173396
0.00114888
0.0028301
0.00297196
0.00310176
0.00322862
0.00276288
0.00237384
0.00213711
0.00195074
0.00178788
0.00165849
0.00157331
0.00151986
0.00148284
0.00145099
0.00141598
0.00137185
0.00131537
0.00124693
0.00117076
0.00109313
0.00101989
0.000954827
0.000899575
0.000854418
0.000819182
0.000793745
0.000778075
0.000772047
0.000775498
0.000788579
0.000812057
0.000847242
0.000895591
0.000957955
0.00103247
0.00112275
0.00112671
0.00101848
0.000959355
0.00108612
)
;

boundaryField
{
    floor
    {
        type            nutkWallFunction;
        Cmu             0.09;
        kappa           0.41;
        E               9.8;
        value           nonuniform List<scalar> 
29
(
0.000162782
9.23779e-05
0.000108163
0.000126951
0.00013922
0.000141607
0.000138497
0.000130125
0.000121102
0.000112911
0.000105717
9.94191e-05
9.38898e-05
8.89873e-05
8.46017e-05
8.05886e-05
7.67321e-05
7.27075e-05
6.83162e-05
6.14081e-05
6.1408e-05
6.85276e-05
7.24885e-05
7.50056e-05
0.000162782
9.23779e-05
8.95949e-05
9.61795e-05
0.000182559
)
;
    }
    ceiling
    {
        type            nutkWallFunction;
        Cmu             0.09;
        kappa           0.41;
        E               9.8;
        value           nonuniform List<scalar> 
43
(
0.000321882
0.000336729
0.000350254
0.000363575
0.000315019
0.000273773
0.000248324
0.000228073
0.000210206
0.000195887
0.000186396
0.000180412
0.000176256
0.000172671
0.000168719
0.00016372
0.000157297
0.000149469
0.000140699
0.000131693
0.000123128
0.000115459
0.000108897
0.000103497
9.92576e-05
9.61813e-05
9.42776e-05
9.35397e-05
9.39512e-05
9.55285e-05
9.83569e-05
0.000102581
0.000108355
0.000115753
0.000124523
0.00013506
0.000135541
0.000122906
0.000115932
0.000130737
0.000373906
0.000432278
0.000374507
)
;
    }
    sWall
    {
        type            nutkWallFunction;
        Cmu             0.09;
        kappa           0.41;
        E               9.8;
        value           uniform 0.000321959;
    }
    nWall
    {
        type            nutkWallFunction;
        Cmu             0.09;
        kappa           0.41;
        E               9.8;
        value           nonuniform List<scalar> 6(0.000103594 0.000109551 0.000129559 0.000135345 0.000138119 0.000130745);
    }
    sideWalls
    {
        type            empty;
    }
    glass1
    {
        type            nutkWallFunction;
        Cmu             0.09;
        kappa           0.41;
        E               9.8;
        value           nonuniform List<scalar> 9(0.000178327 0.000221083 0.00025528 0.000287199 0.000319314 0.00035298 0.000379926 0.000384358 0.000374473);
    }
    glass2
    {
        type            nutkWallFunction;
        Cmu             0.09;
        kappa           0.41;
        E               9.8;
        value           nonuniform List<scalar> 2(0.000183329 0.000168632);
    }
    sun
    {
        type            nutkWallFunction;
        Cmu             0.09;
        kappa           0.41;
        E               9.8;
        value           nonuniform List<scalar> 
14
(
0.000178053
0.000197258
0.000206081
0.000217929
0.000230147
0.000242875
0.000253575
0.000260835
0.000263084
0.000250778
0.000236255
0.000219274
0.000200441
0.000182676
)
;
    }
    heatsource1
    {
        type            nutkWallFunction;
        Cmu             0.09;
        kappa           0.41;
        E               9.8;
        value           nonuniform List<scalar> 3(7.73081e-05 9.11756e-05 0.000103591);
    }
    heatsource2
    {
        type            nutkWallFunction;
        Cmu             0.09;
        kappa           0.41;
        E               9.8;
        value           nonuniform List<scalar> 4(0.00018041 0.000154005 0.000154005 0.000169937);
    }
    Table_master
    {
        type            nutkWallFunction;
        Cmu             0.09;
        kappa           0.41;
        E               9.8;
        value           nonuniform List<scalar> 9(0.000172979 0.000150854 0.000132697 0.000117976 0.000106012 9.62215e-05 8.81614e-05 8.17164e-05 7.71411e-05);
    }
    Table_slave
    {
        type            nutkWallFunction;
        Cmu             0.09;
        kappa           0.41;
        E               9.8;
        value           nonuniform List<scalar> 9(0.000194917 0.000176997 0.000162876 0.000150937 0.000140006 0.000129415 0.000118716 0.000107485 9.47722e-05);
    }
    inlet
    {
        type            calculated;
        value           uniform 0.000167705;
    }
    outlet
    {
        type            calculated;
        value           nonuniform List<scalar> 2(0.0028301 0.00297196);
    }
}


// ************************************************************************* //
