/*--------------------------------*- C++ -*----------------------------------*\
  =========                 |
  \\      /  F ield         | OpenFOAM: The Open Source CFD Toolbox
   \\    /   O peration     | Website:  https://openfoam.org
    \\  /    A nd           | Version:  6
     \\/     M anipulation  |
\*---------------------------------------------------------------------------*/
FoamFile
{
    version     2.0;
    format      ascii;
    class       surfaceScalarField;
    location    "100";
    object      phi;
}
// * * * * * * * * * * * * * * * * * * * * * * * * * * * * * * * * * * * * * //

dimensions      [1 0 -1 0 0 0 0];

internalField   nonuniform List<scalar> 
852
(
-0.00362486
0.00369088
-0.00520474
0.00157982
-0.00616351
0.000958723
-0.00659009
0.000426526
-0.00641567
-0.000174466
-0.00554748
-0.000868242
-0.00398051
-0.00156702
-0.00190214
-0.00207843
0.000306411
-0.00220869
0.00197879
-0.00167249
0.00306983
-0.00109117
0.00355915
-0.000489447
0.00341407
0.000144943
0.00247076
0.000943165
0.00247391
-0.00128837
0.0012921
-0.00131349
2.485e-05
-0.000486844
-0.000826914
0.000505056
-0.000992159
0.00133002
-0.000825228
0.00192405
-0.000594296
0.00226594
-0.000342169
0.00243275
-0.000167092
0.00253121
-9.87396e-05
0.00259978
-6.88542e-05
0.00264804
-4.85572e-05
0.00267984
-3.20959e-05
0.00269185
-1.23061e-05
0.00266723
2.43101e-05
0.00256546
0.000101456
0.00231704
0.000248107
0.00188003
0.000436692
0.00122218
0.000657528
0.0012264
-0.00258714
0.00645819
-0.00398499
0.00297761
-0.00493722
0.00191092
-0.00539156
0.000880827
-0.00526844
-0.00029761
-0.00450602
-0.00163068
-0.0031597
-0.00291335
-0.00149775
-0.00374042
0.000125298
-0.00383186
0.00150264
-0.00304997
0.00245788
-0.00204658
0.0029976
-0.00102933
0.00316613
-2.37494e-05
0.00313431
0.00097483
0.00370739
0.00190067
0.00184457
0.00186261
0.00184436
-0.000215427
0.00151944
0.000334795
-0.000525656
0.000991986
-0.00148436
0.00152205
-0.00152248
0.00196322
-0.00126665
0.00227732
-0.000908673
0.00235308
-0.000418199
0.00237073
-0.000185008
0.00238816
-0.000116448
0.00240223
-8.32126e-05
0.00241175
-5.83609e-05
0.00241797
-3.86202e-05
0.00241958
-1.42097e-05
0.00240844
3.51375e-05
0.0023386
0.000170986
0.00204751
0.000538888
0.00157288
0.000911001
0.000959123
0.00127096
0.00219787
-0.00178776
0.00852429
-0.00291267
0.00410247
-0.00374837
0.00274659
-0.00416082
0.00129324
-0.00405264
-0.000405796
-0.00334886
-0.00233445
-0.00216766
-0.00409451
-0.000830501
-0.00507758
0.000378159
-0.00504064
0.00142429
-0.00409629
0.00219299
-0.00281549
0.00266649
-0.00150303
0.00291684
-0.000274295
0.00303845
0.000853034
0.0030591
0.00187985
0.00229353
0.00262802
0.00413773
0.0015792
-4.05256e-05
0.00223419
-0.0011809
0.00237694
-0.00162735
0.00249578
-0.00164158
0.002621
-0.00139213
0.00279825
-0.00108619
0.00237993
0.0021948
0.00207824
0.0019949
0.00193641
0.00189765
0.0018833
0.00191828
0.00208911
0.00163756
0.000990114
0.00119353
0.00135471
0.00068595
0.0017782
0.00290371
-0.00119787
0.0100856
-0.00200786
0.00491241
-0.00256286
0.00330155
-0.00281986
0.00155021
-0.00260818
-0.000617484
-0.00189825
-0.00304434
-0.000901566
-0.00509111
7.21903e-05
-0.0060513
0.000900714
-0.00586928
0.00160368
-0.00479947
0.00211619
-0.00332826
0.0024312
-0.00181829
0.00261943
-0.000462762
0.00277057
0.00070168
0.00298547
0.00166474
0.00335104
0.00226226
0.00499892
0.00248967
0.00401382
0.00100201
0.0040404
-6.72903e-05
0.00373944
-0.000880137
0.00340091
-0.00128906
0.00310622
-0.00134714
0.00287736
-0.00116355
0.00260829
-0.000817411
0.00288995
-0.00028212
0.00293718
-4.76901e-05
0.00288098
5.57268e-05
0.00275798
0.000122509
0.00257636
0.000181134
0.00233244
0.000243415
0.00200936
0.000322564
0.00157046
0.000438379
0.000933446
0.000636483
0.000869614
0.00105359
0.000653624
0.00157036
0.000356619
0.00207487
0.00328737
-0.000779687
0.0113021
-0.00131308
0.00544575
-0.0014171
0.00340551
-0.00133041
0.00146347
-0.000818029
-0.00112988
-6.51166e-05
-0.00379718
0.000639269
-0.00579535
0.00118401
-0.00659599
0.00159087
-0.00627625
0.00189298
-0.00510184
0.00206477
-0.00350037
0.00212945
-0.00188328
0.00217367
-0.00050727
0.0023006
0.000574503
0.00261158
0.00135353
0.00311488
0.00175876
0.00382626
0.0017781
0.0038907
0.000937365
0.00382633
-3.13999e-06
0.00354756
-0.000601604
0.00315643
-0.000898188
0.00275391
-0.000944914
0.00239351
-0.00080346
0.00210358
-0.0005278
0.00199731
-0.000176187
0.00187919
7.00765e-05
0.00173414
0.000200417
0.00158225
0.000274041
0.00142617
0.000336846
0.0012571
0.000412106
0.00106077
0.000518508
0.000822953
0.000675802
0.000578244
0.000880798
0.000473603
0.00115785
0.000487108
0.00155649
0.000375114
0.00218652
0.000749217
0.00291294
-0.000956641
0.00170531
-0.00147944
0.000522051
-0.00142507
-0.000593697
0.0123952
-0.000850711
0.0057027
-0.00026733
0.00282206
0.000492154
0.000703906
0.00136155
-0.00199929
0.00202712
-0.00446265
0.00235832
-0.00612638
0.00244787
-0.00668547
0.00235316
-0.00618167
0.00214868
-0.00489768
0.00187923
-0.00323132
0.00160562
-0.00161006
0.0014364
-0.000338387
0.00146187
0.000548757
0.00171135
0.0011038
0.00212173
0.00134814
0.0026372
0.0012624
0.00287987
0.000694456
0.00278963
8.68287e-05
0.00251639
-0.000328652
0.0021486
-0.000530709
0.0017561
-0.000552755
0.00138942
-0.000437128
0.0010839
-0.000222639
0.000872681
3.46614e-05
0.0007228
0.000219578
0.000606446
0.000316387
0.000509646
0.000370451
0.000429905
0.000416193
0.000366866
0.000474745
0.000321659
0.000563309
0.000298833
0.000698218
0.000307957
0.000871263
0.00042704
0.00103836
0.000718546
0.00126459
0.00113926
0.00176543
0.00187214
0.00217971
0.00228212
0.00129498
0.00193285
0.000870915
0.000574099
-0.000433882
0.0133872
-2.05972e-05
0.00528935
0.0016607
0.00114068
0.00299219
-0.000627687
0.00391442
-0.0029215
0.0043295
-0.00487757
0.00422501
-0.00602169
0.00372187
-0.00618227
0.00297596
-0.00543594
0.00214798
-0.00407009
0.00135614
-0.00243997
0.000716571
-0.000970938
0.000369653
8.13564e-06
0.000342298
0.000575801
0.000563637
0.000882183
0.000920998
0.000990507
0.00130146
0.000881655
0.00146611
0.000529503
0.0013894
0.000163219
0.00115367
-9.32779e-05
0.000831616
-0.000209023
0.000481251
-0.000202774
0.000146922
-0.000103192
-0.000129694
5.35778e-05
-0.000306573
0.000211136
-0.000400315
0.000312912
-0.000450424
0.000366088
-0.00046979
0.000389406
-0.000455363
0.000401353
-0.000398004
0.000416968
-0.000285203
0.000450084
-0.00010088
0.000513467
0.000158484
0.000611468
0.000489112
0.000707306
0.000926085
0.000827194
0.00154425
0.00114685
0.00245195
0.00127163
0.00314061
0.000605934
0.00324095
0.000770184
0.00388551
0.00364683
0.0103661
0.00475973
0.0041764
0.00567293
0.000227407
0.00680196
-0.00175672
0.00727843
-0.00339782
0.00698408
-0.00458296
0.00604119
-0.00507857
0.0046542
-0.0047953
0.00306203
-0.00384406
0.00153185
-0.00254045
0.000226603
-0.0011353
-0.00058979
-0.000155033
-0.000903621
0.000321592
-0.000881109
0.000552952
-0.000680212
0.000680961
-0.000402003
0.000711969
-0.000151508
0.000630818
-6.36937e-05
0.000441324
-0.000145913
0.00024505
-0.000346936
0.000107338
-0.000608778
5.23973e-05
-0.0008829
7.09174e-05
-0.001123
0.000136475
-0.00129131
0.000221452
-0.00137924
0.000298626
-0.00141242
0.000345655
-0.00140694
0.000360181
-0.00136606
0.000348095
-0.00128309
0.000317944
-0.00114688
0.000280319
-0.0009452
0.000247964
-0.000666254
0.000234072
-0.000305017
0.00024978
0.000100236
0.000301601
0.000508357
0.000418619
0.00101365
0.000641106
0.00156897
0.000715885
0.00164394
0.000530559
0.000596142
0.00181761
0.00478877
0.0110725
0.0152558
0.0140378
0.00144535
0.0128952
-0.00061395
0.0113433
-0.00184555
0.00927111
-0.00251041
0.00684467
-0.00265198
0.00429651
-0.00224738
0.00179333
-0.00134139
-0.000269215
-0.000478642
-0.00155998
0.000154893
-0.00207701
0.000361522
-0.00219172
0.0004359
-0.00212139
0.000482238
-0.00195677
0.000515959
-0.00176638
0.000521185
-0.00161803
0.000482057
-0.00157588
0.000398744
-0.00164061
0.00030933
-0.00177796
0.000244233
-0.00194286
0.000216827
-0.00209683
0.000224415
-0.00221598
0.000255146
-0.0022903
0.000295311
-0.00232381
0.000331668
-0.00233256
0.000353936
-0.00233235
0.000359512
-0.00233621
0.000351501
-0.00235681
0.000338076
-0.00240947
0.000332511
-0.00251426
0.000352282
-0.00269803
0.000417381
-0.00299797
0.00054925
-0.00346963
0.000772815
-0.00417359
0.00112214
-0.00513772
0.0016048
-0.00650917
0.00208691
-0.00829261
0.00231355
-0.00802531
0.00154984
-0.00291831
0.00966763
0.00272616
0.00789152
0.00116233
0.00621237
-0.000166432
0.0042019
-0.000500174
0.00188157
-0.000332128
-0.000445986
7.92032e-05
-0.00222415
0.000436069
-0.00316215
0.000458752
-0.00346678
0.000459008
-0.00351909
0.000413362
-0.00346072
0.00037708
-0.00334445
0.000365519
-0.00320059
0.00037165
-0.00305894
0.000379065
-0.00295058
0.000373225
-0.00290135
0.000349031
-0.00290977
0.00031725
-0.00295617
0.000290128
-0.00301506
0.000275204
-0.00306492
0.000273768
-0.00309317
0.000282883
-0.00309619
0.000297832
-0.00307817
0.000313151
-0.00304881
0.000324075
-0.00301831
0.000328516
-0.00299474
0.000327426
-0.00298298
0.000325812
-0.00298475
0.00033378
-0.00299942
0.000366454
-0.00302578
0.000443249
-0.00306566
0.000588648
-0.00312479
0.000831478
-0.00318663
0.00118352
-0.00316709
0.00158479
-0.00295046
0.00186978
-0.00205175
0.00141426
-0.00026823
-0.000234446
-0.00311129
-0.00212983
0.0049086
-0.00259093
0.00162268
-0.00346352
0.000705566
-0.00423644
0.000272162
-0.00483935
0.000270172
-0.00513589
0.000375125
-0.00513932
0.000438898
-0.00507653
0.000395406
-0.00493997
0.000321917
-0.00478551
0.000258387
-0.00463052
0.000221578
-0.00447542
0.000209899
-0.00431956
0.000215279
-0.00416833
0.000227314
-0.00403238
0.000236738
-0.00392248
0.000238602
-0.00384026
0.000234484
-0.00377904
0.000228359
-0.00372817
0.000223788
-0.00367737
0.000222426
-0.00361915
0.000224115
-0.00354932
0.000227459
-0.00346693
0.000230217
-0.00337353
0.000230127
-0.00327159
0.000226031
-0.00316319
0.000218483
-0.00304831
0.00021038
-0.00292272
0.00020765
-0.00277637
0.000219574
-0.00259263
0.000258979
-0.00234945
0.000344957
-0.00202527
0.000506799
-0.00159718
0.000754943
-0.000975666
0.000962804
0.000149804
0.00074384
0.00201908
-0.000455427
0.00366588
-0.00188161
0.00063774
-0.0118027
-0.0156725
-0.0107326
-0.00909364
-0.00837778
-0.00809877
-0.00782404
-0.00744618
-0.00700607
-0.00661071
-0.00628985
-0.00603339
-0.00581452
-0.00560809
-0.00539704
-0.00517475
-0.00494388
-0.00471201
-0.00448509
-0.00426507
-0.00405027
-0.00383737
-0.00362316
-0.00340581
-0.00318573
-0.00296557
-0.00274912
-0.00253964
-0.00233746
-0.00213705
-0.00192359
-0.00166952
-0.00132824
-0.000823943
-7.05032e-05
0.000891571
0.00163433
0.00117616
-0.000711517
)
;

boundaryField
{
    floor
    {
        type            calculated;
        value           nonuniform List<scalar> 
29
(
0
0
0
0
0
0
0
0
0
0
0
0
0
0
0
0
0
0
0
0
-4.54532e-06
-1.26723e-05
-2.02114e-05
-2.73742e-05
-3.2912e-06
-4.00509e-06
-1.21965e-05
-1.95522e-05
-1.70855e-05
)
;
    }
    ceiling
    {
        type            calculated;
        value           nonuniform List<scalar> 
43
(
-3.42886e-05
-3.31163e-05
-3.21073e-05
-1.70317e-05
-1.09495e-05
-7.46344e-06
-5.16679e-06
-3.33896e-06
-1.80503e-06
-5.46936e-07
4.69905e-07
1.33955e-06
2.12664e-06
2.8805e-06
3.64237e-06
4.4397e-06
5.27779e-06
6.1362e-06
6.97353e-06
7.74412e-06
8.40878e-06
8.93893e-06
9.31516e-06
9.5229e-06
9.54812e-06
9.37581e-06
8.99411e-06
8.40145e-06
7.60906e-06
6.63907e-06
5.5252e-06
4.31822e-06
3.08938e-06
1.92901e-06
9.48149e-07
2.07381e-07
6.01789e-07
2.26272e-06
6.1234e-06
1.15385e-05
-5.88119e-06
-6.85554e-06
-5.32473e-05
)
;
    }
    sWall
    {
        type            calculated;
        value           uniform -0.000193476;
    }
    nWall
    {
        type            calculated;
        value           nonuniform List<scalar> 6(-5.50621e-05 -6.67343e-05 -7.08543e-05 -7.59464e-05 -8.37023e-05 -8.62276e-05);
    }
    sideWalls
    {
        type            empty;
        value           nonuniform 0();
    }
    glass1
    {
        type            calculated;
        value           nonuniform List<scalar> 9(-6.60667e-05 -0.000180216 -0.000278368 -0.000363488 -0.000436835 -0.000499392 -0.000558129 -0.000625742 -0.000700613);
    }
    glass2
    {
        type            calculated;
        value           nonuniform List<scalar> 2(-0.000307485 -0.000318691);
    }
    sun
    {
        type            calculated;
        value           uniform 0;
    }
    heatsource1
    {
        type            calculated;
        value           nonuniform List<scalar> 3(2.05255e-07 2.04957e-07 2.05078e-07);
    }
    heatsource2
    {
        type            calculated;
        value           nonuniform List<scalar> 4(5.17588e-08 5.19994e-08 0 0);
    }
    Table_master
    {
        type            calculated;
        value           nonuniform List<scalar> 9(-1.54525e-07 -1.54735e-07 -1.54782e-07 -1.54798e-07 -1.54796e-07 -1.54781e-07 -1.54756e-07 -1.54709e-07 -1.54611e-07);
    }
    Table_slave
    {
        type            calculated;
        value           nonuniform List<scalar> 9(1.54117e-07 1.54145e-07 1.54092e-07 1.54058e-07 1.54047e-07 1.54057e-07 1.54088e-07 1.54143e-07 1.54238e-07);
    }
    inlet
    {
        type            calculated;
        value           uniform -0.0109482;
    }
    outlet
    {
        type            calculated;
        value           nonuniform List<scalar> 2(0.0120296 0.00390204);
    }
}


// ************************************************************************* //
