// -*- C++ -*-
// File generated by PyFoam - sorry for the ugliness

FoamFile
{
 version 2.0;
 format ascii;
 class volScalarField;
 location "100";
 object T;
}

dimensions [ 0 0 0 1 0 0 0 ];

internalField nonuniform List<scalar> 459
(
  300.276
  299.969
  299.95
  299.943
  299.937
  299.931
  299.926
  299.93
  299.966
  300.072
  300.13
  300.168
  300.194
  300.218
  300.252
  301.304
  301.218
  301.151
  301.154
  301.202
  301.246
  301.286
  301.324
  301.361
  301.398
  301.436
  301.473
  301.511
  301.55
  301.59
  301.631
  301.678
  301.738
  301.835
  300.46
  299.994
  299.953
  299.943
  299.935
  299.923
  299.898
  299.885
  299.935
  300.067
  300.163
  300.224
  300.252
  300.266
  300.273
  300.289
  300.312
  301.328
  301.146
  301.051
  301.075
  301.139
  301.204
  301.246
  301.286
  301.325
  301.363
  301.403
  301.442
  301.483
  301.524
  301.566
  301.611
  301.664
  301.731
  301.838
  300.666
  300.047
  299.99
  299.989
  299.989
  299.968
  299.9
  299.845
  299.905
  300.067
  300.211
  300.305
  300.345
  300.35
  300.341
  300.337
  300.339
  301.281
  301.012
  300.958
  301.025
  301.135
  301.235
  301.261
  301.295
  301.333
  301.373
  301.415
  301.459
  301.505
  301.551
  301.596
  301.644
  301.694
  301.756
  301.856
  300.884
  300.126
  300.051
  300.073
  300.099
  300.066
  299.923
  299.81
  299.874
  300.069
  300.275
  300.414
  300.472
  300.473
  300.446
  300.417
  300.391
  300.42
  300.494
  300.631
  300.822
  301.03
  301.222
  301.374
  301.493
  301.586
  301.668
  301.746
  301.82
  301.893
  301.964
  302.038
  302.109
  301.926
  301.833
  301.821
  301.887
  301.107
  300.232
  300.134
  300.18
  300.251
  300.184
  299.942
  299.782
  299.841
  300.082
  300.361
  300.56
  300.645
  300.644
  300.603
  300.558
  300.529
  300.57
  300.676
  300.854
  301.072
  301.295
  301.495
  301.66
  301.799
  301.909
  301.998
  302.072
  302.132
  302.182
  302.222
  302.251
  302.259
  302.116
  301.958
  301.893
  301.923
  302.374
  302.651
  302.584
  301.32
  300.373
  300.257
  300.313
  300.399
  300.242
  299.94
  299.74
  299.813
  300.122
  300.492
  300.761
  300.877
  300.882
  300.831
  300.784
  300.779
  300.866
  301.035
  301.243
  301.467
  301.679
  301.861
  302.007
  302.126
  302.219
  302.288
  302.343
  302.387
  302.417
  302.433
  302.431
  302.399
  302.265
  302.095
  301.99
  301.976
  302.196
  302.332
  302.435
  301.537
  300.591
  300.489
  300.562
  300.533
  300.237
  299.844
  299.642
  299.791
  300.215
  300.701
  301.044
  301.186
  301.192
  301.143
  301.119
  301.163
  301.303
  301.508
  301.721
  301.926
  302.106
  302.252
  302.368
  302.455
  302.511
  302.553
  302.587
  302.612
  302.624
  302.621
  302.599
  302.546
  302.426
  302.278
  302.152
  302.098
  302.18
  302.261
  302.349
  301.821
  301.13
  301.005
  300.949
  300.606
  300.048
  299.569
  299.466
  299.813
  300.426
  301.051
  301.445
  301.572
  301.565
  301.546
  301.567
  301.657
  301.827
  302.037
  302.232
  302.394
  302.525
  302.624
  302.692
  302.735
  302.765
  302.787
  302.803
  302.811
  302.807
  302.791
  302.76
  302.708
  302.622
  302.504
  302.394
  302.346
  302.407
  302.467
  302.612
  302.242
  301.896
  301.669
  301.096
  300.087
  299.248
  298.923
  299.25
  300.046
  300.917
  301.645
  301.909
  301.978
  301.997
  302.025
  302.092
  302.208
  302.366
  302.535
  302.682
  302.795
  302.875
  302.928
  302.959
  302.978
  302.989
  302.995
  302.996
  302.988
  302.969
  302.942
  302.907
  302.872
  302.843
  302.829
  302.84
  302.885
  302.943
  302.977
  303.09
  292.645
  293.317
  294.504
  296.125
  297.82
  299.634
  301.284
  301.944
  302.238
  302.357
  302.415
  302.463
  302.524
  302.609
  302.718
  302.84
  302.955
  303.048
  303.115
  303.157
  303.18
  303.191
  303.193
  303.19
  303.181
  303.165
  303.143
  303.114
  303.08
  303.047
  303.017
  302.995
  302.988
  303.002
  303.043
  303.108
  303.213
  303.516
  295.421
  297.635
  299.444
  300.446
  301.238
  301.878
  302.332
  302.592
  302.726
  302.806
  302.867
  302.928
  302.995
  303.071
  303.152
  303.231
  303.299
  303.351
  303.385
  303.403
  303.41
  303.408
  303.399
  303.385
  303.364
  303.339
  303.308
  303.273
  303.235
  303.197
  303.162
  303.131
  303.111
  303.109
  303.131
  303.226
  303.388
  303.466
  299.352
  299.3
  299.282
  301.097
  302.039
  302.522
  302.788
  302.973
  303.11
  303.209
  303.281
  303.34
  303.391
  303.438
  303.483
  303.528
  303.569
  303.605
  303.633
  303.652
  303.663
  303.666
  303.663
  303.655
  303.642
  303.624
  303.602
  303.575
  303.543
  303.507
  303.465
  303.42
  303.373
  303.325
  303.282
  303.248
  303.269
  303.348
  303.526
  303.849
)
;

boundaryField
{
  floor
  {
    type wallHeatTransfer;
    Tinf uniform 305.2;
    alphaWall uniform 0.24;
    value nonuniform List<scalar> 29
(
  300.686
  301.834
  301.7
  301.585
  301.557
  301.595
  301.642
  301.697
  301.754
  301.811
  301.867
  301.921
  301.974
  302.027
  302.079
  302.131
  302.184
  302.244
  302.318
  302.439
  302.439
  302.4
  302.395
  302.409
  300.686
  301.834
  301.866
  301.798
  300.801
)
;
  }
  ceiling
  {
    type wallHeatTransfer;
    Tinf uniform 303.2;
    alphaWall uniform 0.24;
    value nonuniform List<scalar> 43
(
  299.539
  299.483
  299.458
  301.189
  302.097
  302.561
  302.814
  302.988
  303.117
  303.209
  303.275
  303.329
  303.375
  303.418
  303.459
  303.499
  303.536
  303.567
  303.59
  303.605
  303.612
  303.612
  303.607
  303.598
  303.585
  303.568
  303.548
  303.525
  303.497
  303.466
  303.431
  303.393
  303.352
  303.311
  303.274
  303.243
  303.262
  303.332
  303.488
  303.781
  302.283
  301.945
  295.747
)
;
  }
  sWall
  {
    type wallHeatTransfer;
    Tinf uniform 315.2;
    alphaWall uniform 0.36;
    value uniform 300.481;
  }
  nWall
  {
    type wallHeatTransfer;
    Tinf uniform 307.2;
    alphaWall uniform 0.36;
    value nonuniform List<scalar> 6
(
  303.402
  303.247
  303.081
  304.055
  304.004
  304.353
)
;
  }
  sideWalls
  {
    type empty;
  }
  glass1
  {
    type wallHeatTransfer;
    Tinf uniform 315.2;
    alphaWall uniform 4.3;
    value nonuniform List<scalar> 9
(
  309.517
  308.886
  308.492
  308.197
  307.952
  307.731
  307.61
  307.732
  308.05
)
;
  }
  glass2
  {
    type wallHeatTransfer;
    Tinf uniform 307.2;
    alphaWall uniform 4.3;
    value nonuniform List<scalar> 2
(
  305.413
  305.673
)
;
  }
  sun
  {
    type wallHeatTransfer;
    Tinf uniform 305.2;
    alphaWall uniform 0.24;
    value nonuniform List<scalar> 14
(
  300.676
  300.359
  300.327
  300.303
  300.281
  300.26
  300.243
  300.239
  300.27
  300.383
  300.454
  300.511
  300.563
  300.615
)
;
  }
  heatsource1
  {
    type fixedGradient;
    gradient uniform 0;
  }
  heatsource2
  {
    type fixedGradient;
    gradient uniform 0;
  }
  Table_master
  {
    type zeroGradient;
  }
  Table_slave
  {
    type zeroGradient;
  }
  inlet
  {
    type fixedValue;
    value uniform 295.15;
  }
  outlet
  {
    type zeroGradient;
  }
} 	// ************************************************************************* //

