// -*- C++ -*-
// File generated by PyFoam - sorry for the ugliness

FoamFile
{
 version 2.0;
 format ascii;
 class volVectorField;
 location "100";
 object U;
}

dimensions [ 0 1 -1 0 0 0 0 ];

internalField nonuniform List<vector> 459
(
  (0.00149494 0.103209 0)
  (-0.208033 0.0338169 0)
  (-0.249944 0.0135106 0)
  (-0.279427 -0.00257678 0)
  (-0.283026 -0.0196346 0)
  (-0.256665 -0.0389564 0)
  (-0.202011 -0.0599429 0)
  (-0.126246 -0.0776393 0)
  (-0.0412673 -0.0855466 0)
  (0.055605 -0.063859 0)
  (0.10778 -0.0431708 0)
  (0.143061 -0.0237325 0)
  (0.15432 -0.00474388 0)
  (0.134747 0.021387 0)
  (0.101778 0.0752639 0)
  (-0.03713 0.0207436 0)
  (-0.0634423 -0.0159349 0)
  (-0.0325651 -0.0378618 0)
  (0.00346985 -0.0417081 0)
  (0.0406423 -0.0327692 0)
  (0.0695513 -0.023117 0)
  (0.0896818 -0.0135716 0)
  (0.101494 -0.00837099 0)
  (0.10728 -0.0062753 0)
  (0.110332 -0.00532651 0)
  (0.112486 -0.00467707 0)
  (0.11413 -0.00411504 0)
  (0.115134 -0.00349222 0)
  (0.115021 -0.00248959 0)
  (0.112696 -0.000473478 0)
  (0.105992 0.00346179 0)
  (0.092422 0.00847352 0)
  (0.0714388 0.0156081 0)
  (0.0196572 0.0353952 0)
  (0.178898 0.21377 0)
  (-0.179363 0.0987009 0)
  (-0.196369 0.0631534 0)
  (-0.227263 0.0302258 0)
  (-0.233175 -0.00811547 0)
  (-0.210892 -0.0523791 0)
  (-0.163317 -0.0962148 0)
  (-0.0991243 -0.127182 0)
  (-0.0304121 -0.134022 0)
  (0.0389245 -0.104989 0)
  (0.0855711 -0.0683307 0)
  (0.118059 -0.0315665 0)
  (0.135124 0.00550282 0)
  (0.139657 0.043908 0)
  (0.139506 0.0919294 0)
  (0.13514 0.0870435 0)
  (0.0873843 0.0817689 0)
  (0.0308209 0.0619447 0)
  (0.00326509 -0.017059 0)
  (0.0352384 -0.056145 0)
  (0.0551603 -0.0583665 0)
  (0.0748208 -0.0482936 0)
  (0.0913418 -0.0340742 0)
  (0.0995472 -0.0159253 0)
  (0.101875 -0.00522789 0)
  (0.10209 -0.00116862 0)
  (0.102422 0.000322908 0)
  (0.102955 0.00108957 0)
  (0.103366 0.00165601 0)
  (0.103581 0.00247887 0)
  (0.103461 0.00427578 0)
  (0.102112 0.00847218 0)
  (0.0956659 0.0190693 0)
  (0.080289 0.029505 0)
  (0.0612047 0.0414864 0)
  (-0.0204242 0.0724162 0)
  (0.342893 0.317746 0)
  (-0.179792 0.150795 0)
  (-0.145231 0.0983006 0)
  (-0.175146 0.0442269 0)
  (-0.181414 -0.0177567 0)
  (-0.15977 -0.0866036 0)
  (-0.11617 -0.15152 0)
  (-0.0627395 -0.191072 0)
  (-0.00843714 -0.192245 0)
  (0.0401343 -0.15483 0)
  (0.0779 -0.105514 0)
  (0.104855 -0.0552132 0)
  (0.120755 -0.00694602 0)
  (0.128718 0.0395716 0)
  (0.131494 0.0824633 0)
  (0.121202 0.0971004 0)
  (0.0969978 0.138146 0)
  (0.111721 0.00254603 0)
  (0.094763 -0.0505272 0)
  (0.098579 -0.0716888 0)
  (0.104079 -0.0718309 0)
  (0.109296 -0.0607189 0)
  (0.114949 -0.0477455 0)
  (0.113436 -0.0357592 0)
  (0.10045 -0.0227598 0)
  (0.090558 -0.0156699 0)
  (0.0859109 -0.011641 0)
  (0.0835829 -0.00904278 0)
  (0.0818888 -0.00723795 0)
  (0.0806983 -0.00572979 0)
  (0.0810783 -0.00364671 0)
  (0.0854885 0.00217044 0)
  (0.0821142 0.0277575 0)
  (0.063609 0.0465977 0)
  (0.0538763 0.0647741 0)
  (-0.0618243 0.108047 0)
  (0.494508 0.399928 0)
  (-0.201169 0.193829 0)
  (-0.0939566 0.129707 0)
  (-0.120694 0.0595972 0)
  (-0.122247 -0.0235139 0)
  (-0.0960281 -0.117004 0)
  (-0.0555509 -0.199889 0)
  (-0.0152031 -0.242809 0)
  (0.0226798 -0.237271 0)
  (0.0535398 -0.193982 0)
  (0.0792846 -0.134602 0)
  (0.0973279 -0.0735779 0)
  (0.108355 -0.0175363 0)
  (0.115658 0.0325916 0)
  (0.124132 0.0758426 0)
  (0.137943 0.105672 0)
  (0.161801 0.146345 0)
  (0.203691 0.121462 0)
  (0.185223 0.030831 0)
  (0.166059 -0.0289342 0)
  (0.151596 -0.0579851 0)
  (0.13834 -0.0639913 0)
  (0.126722 -0.0563022 0)
  (0.117022 -0.0415053 0)
  (0.115639 -0.023115 0)
  (0.123024 -0.0134253 0)
  (0.125687 -0.00770773 0)
  (0.122178 -0.00392381 0)
  (0.11517 -0.000981447 0)
  (0.105901 0.00167835 0)
  (0.0940526 0.00454118 0)
  (0.0782876 0.00832438 0)
  (0.0505729 0.0145374 0)
  (0.0395677 0.0443034 0)
  (0.0319451 0.0640493 0)
  (0.0478244 0.0840691 0)
  (-0.10759 0.134367 0)
  (0.629964 0.461323 0)
  (-0.235837 0.225336 0)
  (-0.0456035 0.148216 0)
  (-0.064232 0.068915 0)
  (-0.0501456 -0.0320816 0)
  (-0.0152516 -0.146755 0)
  (0.0192062 -0.238475 0)
  (0.0426854 -0.275285 0)
  (0.0603768 -0.264188 0)
  (0.0737627 -0.216305 0)
  (0.0834505 -0.150269 0)
  (0.0887917 -0.0827947 0)
  (0.0914728 -0.0235053 0)
  (0.094933 0.0258494 0)
  (0.103864 0.0645029 0)
  (0.120813 0.0882607 0)
  (0.147822 0.0948011 0)
  (0.168443 0.0390089 0)
  (0.168131 -0.0114222 0)
  (0.158822 -0.0379666 0)
  (0.143878 -0.049527 0)
  (0.126316 -0.0502364 0)
  (0.109432 -0.0427958 0)
  (0.0953699 -0.0293612 0)
  (0.0868987 -0.0106622 0)
  (0.0826545 0.00110869 0)
  (0.0776605 0.00718114 0)
  (0.0714362 0.010618 0)
  (0.0647063 0.0133305 0)
  (0.0577343 0.0162678 0)
  (0.0501256 0.0201529 0)
  (0.0415652 0.0258027 0)
  (0.0290551 0.0339966 0)
  (0.0210727 0.0512702 0)
  (0.0169081 0.0702065 0)
  (0.0545257 0.0943402 0)
  (-0.0300518 0.139299 0)
  (0.0604227 0.0514391 0)
  (-0.0600202 -0.0319191 0)
  (-0.292072 -0.0565602 0)
  (0.736992 0.50877 0)
  (-0.275306 0.24186 0)
  (-0.00517189 0.142112 0)
  (-0.00136131 0.0584758 0)
  (0.043102 -0.0650943 0)
  (0.0793801 -0.179593 0)
  (0.100556 -0.258032 0)
  (0.106891 -0.287994 0)
  (0.103459 -0.270971 0)
  (0.0947123 -0.218762 0)
  (0.0838427 -0.148742 0)
  (0.0726286 -0.0788453 0)
  (0.0636616 -0.0208044 0)
  (0.0600581 0.0229417 0)
  (0.0662461 0.0523751 0)
  (0.0810616 0.0661575 0)
  (0.103464 0.0616414 0)
  (0.120084 0.029093 0)
  (0.122798 7.68601e-05 0)
  (0.115119 -0.0195371 0)
  (0.10064 -0.0298258 0)
  (0.0836363 -0.0314631 0)
  (0.066895 -0.0261602 0)
  (0.0522811 -0.0157924 0)
  (0.0412685 -0.00251291 0)
  (0.0335773 0.00690623 0)
  (0.0283732 0.0118426 0)
  (0.0238667 0.0146378 0)
  (0.0200137 0.0170772 0)
  (0.0169196 0.0201582 0)
  (0.0146604 0.0246876 0)
  (0.0136596 0.0314535 0)
  (0.0126569 0.0402413 0)
  (0.0150712 0.050187 0)
  (0.0189784 0.0641379 0)
  (0.0597379 0.0890643 0)
  (0.0391555 0.115578 0)
  (0.0987502 0.0744382 0)
  (0.123329 0.0470647 0)
  (-0.133645 -0.00123652 0)
  (0.826131 0.550676 0)
  (-0.293951 0.217434 0)
  (0.0471911 0.0657256 0)
  (0.101101 -0.0110883 0)
  (0.157172 -0.115759 0)
  (0.185722 -0.208044 0)
  (0.190166 -0.265948 0)
  (0.173827 -0.280102 0)
  (0.14332 -0.253076 0)
  (0.106807 -0.196652 0)
  (0.0712546 -0.125898 0)
  (0.0412466 -0.0584599 0)
  (0.020476 -0.00752216 0)
  (0.0123764 0.0248719 0)
  (0.0180109 0.0428707 0)
  (0.0315612 0.0492303 0)
  (0.0492907 0.0435063 0)
  (0.061163 0.0242277 0)
  (0.0623631 0.00471315 0)
  (0.0557944 -0.00905639 0)
  (0.0432113 -0.0156835 0)
  (0.0281745 -0.0158956 0)
  (0.0131551 -0.0110976 0)
  (-0.000357158 -0.0027454 0)
  (-0.0105216 0.00645602 0)
  (-0.0156265 0.0123945 0)
  (-0.0185176 0.0154565 0)
  (-0.0200559 0.0171433 0)
  (-0.0202627 0.0185679 0)
  (-0.0188105 0.0204824 0)
  (-0.0151708 0.0235365 0)
  (-0.00867613 0.0282848 0)
  (0.000772857 0.0345779 0)
  (0.0137422 0.0397588 0)
  (0.0264197 0.0472607 0)
  (0.0603472 0.0662325 0)
  (0.0772417 0.0778834 0)
  (0.120751 0.0495951 0)
  (0.167908 0.0411979 0)
  (-0.0400948 0.0972977 0)
  (0.945485 0.53296 0)
  (-0.00392427 0.190391 0)
  (0.160979 -0.0287392 0)
  (0.281885 -0.118001 0)
  (0.320113 -0.175202 0)
  (0.31567 -0.221434 0)
  (0.283859 -0.24627 0)
  (0.230429 -0.240288 0)
  (0.163386 -0.20334 0)
  (0.093756 -0.145761 0)
  (0.0320407 -0.0796053 0)
  (-0.0135032 -0.0216076 0)
  (-0.0364482 0.00994463 0)
  (-0.040103 0.025303 0)
  (-0.0343045 0.0333867 0)
  (-0.0230723 0.0355534 0)
  (-0.01042 0.031135 0)
  (-0.002885 0.0198432 0)
  (-0.00341109 0.00811601 0)
  (-0.00987956 0.000151963 0)
  (-0.0201009 -0.00297491 0)
  (-0.0321572 -0.00192834 0)
  (-0.0437207 0.00196307 0)
  (-0.0527541 0.00709683 0)
  (-0.0580167 0.0117624 0)
  (-0.0603756 0.0147023 0)
  (-0.0609084 0.0160116 0)
  (-0.0599717 0.0161651 0)
  (-0.0574158 0.0156378 0)
  (-0.0528016 0.0148245 0)
  (-0.045534 0.0140477 0)
  (-0.0350243 0.0135 0)
  (-0.0212501 0.0129729 0)
  (-0.00485258 0.0113736 0)
  (0.0112462 0.0110141 0)
  (0.0350849 0.0192108 0)
  (0.0562094 0.0173204 0)
  (0.0764581 -0.00547216 0)
  (0.142713 0.0542514 0)
  (-0.507007 0.221332 0)
  (1.11629 0.445252 0)
  (0.536899 0.287673 0)
  (0.565635 0.186068 0)
  (0.584663 0.0592763 0)
  (0.53333 -0.0483121 0)
  (0.445907 -0.120793 0)
  (0.344032 -0.154712 0)
  (0.235546 -0.15152 0)
  (0.126489 -0.117399 0)
  (0.0270273 -0.066054 0)
  (-0.05111 -0.0137391 0)
  (-0.0835276 0.00928956 0)
  (-0.0938594 0.0183106 0)
  (-0.0935871 0.0228615 0)
  (-0.0878688 0.0253996 0)
  (-0.0795432 0.025659 0)
  (-0.0715661 0.0230471 0)
  (-0.0673632 0.0177209 0)
  (-0.0682441 0.0121787 0)
  (-0.0730813 0.00832169 0)
  (-0.0799968 0.00687843 0)
  (-0.0871698 0.00749309 0)
  (-0.093225 0.00935609 0)
  (-0.097396 0.0116572 0)
  (-0.0995519 0.0136243 0)
  (-0.100282 0.0146614 0)
  (-0.100328 0.0146636 0)
  (-0.100284 0.0137622 0)
  (-0.100673 0.012284 0)
  (-0.102063 0.0108121 0)
  (-0.105132 0.0102162 0)
  (-0.110806 0.0115651 0)
  (-0.120704 0.0160146 0)
  (-0.137301 0.0247154 0)
  (-0.162312 0.0383781 0)
  (-0.195621 0.0557256 0)
  (-0.242448 0.0719086 0)
  (-0.301206 0.0826651 0)
  (-0.377807 0.0857412 0)
  (-0.651338 0.073851 0)
  (0.30996 -0.0766323 0)
  (0.326901 -0.080129 0)
  (0.306877 -0.101989 0)
  (0.226676 -0.100424 0)
  (0.132272 -0.0814946 0)
  (0.0311557 -0.0466367 0)
  (-0.071105 -0.00368961 0)
  (-0.12251 0.0144353 0)
  (-0.146169 0.0203887 0)
  (-0.151608 0.0202098 0)
  (-0.150713 0.0194377 0)
  (-0.146575 0.0193289 0)
  (-0.140658 0.0197564 0)
  (-0.134161 0.0199595 0)
  (-0.128498 0.0192937 0)
  (-0.125121 0.0176302 0)
  (-0.124504 0.0157785 0)
  (-0.12602 0.0145263 0)
  (-0.128572 0.0143134 0)
  (-0.131094 0.0151198 0)
  (-0.132845 0.0166263 0)
  (-0.133484 0.0184252 0)
  (-0.133054 0.0200864 0)
  (-0.131916 0.0212229 0)
  (-0.130534 0.0216272 0)
  (-0.129315 0.0213139 0)
  (-0.128545 0.0205974 0)
  (-0.128345 0.0201102 0)
  (-0.12867 0.0207214 0)
  (-0.129394 0.0234335 0)
  (-0.13053 0.0293562 0)
  (-0.132327 0.0396802 0)
  (-0.1347 0.0550818 0)
  (-0.136212 0.0735418 0)
  (-0.133298 0.0871651 0)
  (-0.113334 0.0804222 0)
  (-0.055166 0.0243429 0)
  (-0.177707 -0.19657 0)
  (0.0732958 0.218299 0)
  (-0.107854 0.0849446 0)
  (-0.141285 0.0405662 0)
  (-0.165186 0.0231792 0)
  (-0.195964 0.023023 0)
  (-0.215755 0.0263466 0)
  (-0.221684 0.0258 0)
  (-0.221009 0.0207212 0)
  (-0.21605 0.0158744 0)
  (-0.209362 0.0112487 0)
  (-0.202646 0.00804055 0)
  (-0.195951 0.00633686 0)
  (-0.189178 0.00561466 0)
  (-0.18244 0.00512083 0)
  (-0.176165 0.0041938 0)
  (-0.170906 0.00247296 0)
  (-0.166913 8.10293e-05 0)
  (-0.164002 -0.00267951 0)
  (-0.161739 -0.00549915 0)
  (-0.159646 -0.00816243 0)
  (-0.157337 -0.0105373 0)
  (-0.154571 -0.0125192 0)
  (-0.151256 -0.0140052 0)
  (-0.147427 -0.0148624 0)
  (-0.14319 -0.014896 0)
  (-0.138656 -0.0138873 0)
  (-0.133885 -0.0116298 0)
  (-0.128793 -0.00793003 0)
  (-0.123039 -0.00258398 0)
  (-0.11592 0.00467148 0)
  (-0.106439 0.0142956 0)
  (-0.0936441 0.0270041 0)
  (-0.0769086 0.0428828 0)
  (-0.0554601 0.0581677 0)
  (-0.0307663 0.0650848 0)
  (0.0326497 0.0291934 0)
  (0.163541 -0.0510239 0)
  (-0.0266494 -0.077489 0)
  (-0.431057 -0.503463 0)
  (-0.627985 -0.158748 0)
  (-0.499292 0.106697 0)
  (-0.447791 0.0229711 0)
  (-0.378124 0.000466244 0)
  (-0.35641 -0.000946792 0)
  (-0.343643 0.00653874 0)
  (-0.328679 0.0140282 0)
  (-0.310553 0.0182516 0)
  (-0.292737 0.0192511 0)
  (-0.277501 0.0200982 0)
  (-0.26529 0.0215625 0)
  (-0.255266 0.0239393 0)
  (-0.246215 0.0271392 0)
  (-0.237225 0.0310294 0)
  (-0.227826 0.0355042 0)
  (-0.218005 0.0404844 0)
  (-0.208033 0.0459209 0)
  (-0.198198 0.0517948 0)
  (-0.188638 0.0580364 0)
  (-0.179329 0.0644816 0)
  (-0.170145 0.0708646 0)
  (-0.160943 0.0768369 0)
  (-0.151617 0.0819876 0)
  (-0.142147 0.0858568 0)
  (-0.132612 0.0879642 0)
  (-0.123162 0.0878805 0)
  (-0.113968 0.0853374 0)
  (-0.105143 0.0803299 0)
  (-0.0966268 0.0731898 0)
  (-0.0879433 0.0646495 0)
  (-0.0778277 0.0559012 0)
  (-0.0641524 0.0486198 0)
  (-0.0451747 0.0448389 0)
  (-0.0219474 0.0460564 0)
  (0.0176842 0.0496856 0)
  (0.0467134 0.0445642 0)
  (0.0788971 0.0158689 0)
  (0.146247 -0.0130774 0)
  (-0.532852 0.12164 0)
)
;

boundaryField
{
  floor
  {
    type noSlip;
  }
  ceiling
  {
    type noSlip;
  }
  sWall
  {
    type noSlip;
  }
  nWall
  {
    type noSlip;
  }
  sideWalls
  {
    type empty;
  }
  glass1
  {
    type noSlip;
  }
  glass2
  {
    type noSlip;
  }
  sun
  {
    type noSlip;
  }
  heatsource1
  {
    type noSlip;
  }
  heatsource2
  {
    type noSlip;
  }
  Table_master
  {
    type noSlip;
  }
  Table_slave
  {
    type noSlip;
  }
  inlet
  {
    type fixedValue;
    value uniform (0.191342 -0.46194 0);
  }
  outlet
  {
    type zeroGradient;
  }
} 	// ************************************************************************* //

