/*--------------------------------*- C++ -*----------------------------------*=========                 |
  \      /  F ield         | OpenFOAM: The Open Source CFD Toolbox
   \    /   O peration     | Website:  https://openfoam.org
    \  /    A nd           | Version:  6
     \/     M anipulation  |
\*---------------------------------------------------------------------------*/
FoamFile
{
    version     2.0;
    format      ascii;
    class       volScalarField;
    location    "590";
    object      PMV;
}
// * * * * * * * * * * * * * * * * * * * * * * * * * * * * * * * * * * * * * //

dimensions      [0 0 0 0 0 0 0];

internalField   nonuniform List<scalar> 
458
(
1.3237123040930312
1.0776682478199189
1.0449718381615287
1.016043539880856
0.9975416978680197
0.98888013024009
0.9914128275081363
1.0061834919536314
1.035434324044566
1.0835181916079806
1.1541930118730908
1.2243867015640717
1.2401417376302202
1.2487350555721013
1.2606698068257587
1.3756923326592474
1.3623316819706488
1.3585141967080758
1.3651947507075406
1.3699664449207196
1.373783721163535
1.3693731609837794
1.3655594717940058
1.3665323879841498
1.3684372357828058
1.3714280727989563
1.3747042188060026
1.379071327427044
1.3855249788631196
1.3968066345924617
1.4052734684865498
1.4095671269371752
1.4238786016782723
1.256211450220479
1.0896382303666208
1.0776482839523753
1.0491126112002345
1.0317606559453156
1.0238357276216352
1.0249372908168726
1.0333203554676955
1.047646237733634
1.0723329028742032
1.1127116325306263
1.1736377739220052
1.2367998263920799
1.2477802545710281
1.2546206960137798
1.2119058418333062
1.212178034553014
1.234455762733858
1.328975104459367
1.3494473970507803
1.3489701865882557
1.356605428444256
1.3594103207773707
1.3590492766420523
1.3591211387474886
1.3602763242925324
1.361463832884531
1.3617463211110232
1.3621929188322377
1.363480773072516
1.3650723407608694
1.3677307218524886
1.3763403138922492
1.3847579916351351
1.3914376871051857
1.3754166242291854
1.287993630647485
1.080644109650227
1.1098524445174696
1.094736126170267
1.0879792777340211
1.084371343280083
1.0842586618369712
1.0806294001408578
1.0674457646272408
1.0557393231730678
1.0670493624964663
1.1158850834236689
1.2080600957645244
1.2539864061417125
1.2606698068257587
1.2635340738682768
1.2643669944033271
1.2447333779140137
1.2397781892848174
1.3034189494973822
1.3130794156450367
1.32146145717236
1.3327063028805006
1.33680987302316
1.3593809669115557
1.373783721163535
1.373783721163535
1.373783721163535
1.37426087570799
1.37426087570799
1.374738029139684
1.3752151814572378
1.37855521636412
1.381418059548033
1.374381817549604
1.3019549565101116
1.3622326172656152
1.0738246173812214
1.133483659616499
1.144374404651338
1.1619725031584713
1.1730285867822832
1.175508322013214
1.1513640777171341
1.0940150951353549
1.0404213494825578
1.0284930260659175
1.0741026909816682
1.1669509741639277
1.2604797055032952
1.2740361369497988
1.2754682056075488
1.2494267380745105
1.225230559629226
1.1744730538890367
1.2410957712930164
1.2770299559562048
1.3029901948608222
1.3331046571442076
1.367697311635772
1.3943326808849592
1.388116573333689
1.3823899391362005
1.3812164163802965
1.382416504650491
1.3849361332301724
1.3919774016099216
1.4051559295448877
1.4284048233324553
1.427359861200595
1.4129065707747797
1.3542385951097922
1.2574154149927594
1.4563288332449338
1.0826309177156006
1.1510125783469491
1.188867267579467
1.2439023524698392
1.2906885979292655
1.2998712129741852
1.2274655187924435
1.1163604154605493
1.0267820497841622
0.9993710442300757
1.0479951302627082
1.142993308483404
1.2462378174064597
1.2936070802491118
1.295516362510066
1.2840750433118624
1.2556986861970312
1.2542852187076736
1.2700918760484516
1.301516989677835
1.3418768299626809
1.3837344048840339
1.4240936023155015
1.4520211404794179
1.4637022724293351
1.4646016875730332
1.4642048433101027
1.462507377982456
1.459599821338172
1.4575384027754736
1.4568634162152276
1.4560324774524693
1.4412048316181807
1.4143041076686342
1.3387044945009923
1.3391068954573346
1.3366052170965208
1.421205242552486
1.2996509741122675
1.5539351525756797
1.112215813031064
1.182252577670918
1.220912509082098
1.305547741016569
1.381418059548033
1.4180809716726148
1.2565625675977985
1.114666524677201
1.0096368204673147
0.9795629307666446
1.0323808756382056
1.1387569182542874
1.2580598424913547
1.3217675161118567
1.3279719177479163
1.325585628831194
1.3265401473220564
1.3385102050546742
1.359060335681973
1.3932470992114638
1.4248326599487346
1.4524980928709605
1.4749132960683156
1.4920802557737123
1.5035238262451234
1.511152384515339
1.5154432736403847
1.517350294625777
1.516396787287738
1.5121059263859036
1.5049542109956822
1.4877414213108897
1.4578121001966664
1.4207695227684516
1.3499592148982713
1.3436204385262516
1.336990027754905
1.3619701994586417
1.3697776701321027
1.646285857307303
1.1990303278329586
1.3016098938787717
1.2794303493872559
1.3343911236223795
1.4138606865298204
1.349057178697774
1.226900823697459
1.0844318272795028
0.9801175264583404
0.9605231833233966
1.0324368508821824
1.1614292189328463
1.3048996271398758
1.360422947913384
1.3713979318003127
1.3718750918870342
1.3776009262829052
1.3957316567686406
1.4214934338823344
1.4496363582063836
1.4763439480173106
1.4992325894649734
1.516396787287738
1.5283151711046197
1.5359424069818892
1.5397558671437783
1.5407092155974274
1.5397558671437783
1.536895781946361
1.53022201923894
1.521164260612145
1.5101988364103494
1.493386374972924
1.4489908580000022
1.3863135684008867
1.357489278360353
1.33647073039179
1.308318357425049
1.4149010617819584
1.7868828103191463
1.572798260751291
1.5147308259334544
1.397511105067371
1.3763020359559524
1.3647951654472443
1.2934130432981246
1.1517606585131004
1.0025554106094374
0.9208925920195828
0.9421722181450657
1.0603130645966923
1.2299896429257997
1.3694892804257799
1.4105212598726165
1.4229245383457867
1.427217783399111
1.4372349512876565
1.4567906030948647
1.4806358260511647
1.5035238262451234
1.5235479375903895
1.5388025120413524
1.5492890501550756
1.5550086349277392
1.557868334677347
1.5583449452582288
1.5569151083277373
1.5540553879060752
1.5497656915988922
1.5440458826225225
1.534989025424767
1.5245013971725883
1.5125826949790064
1.4992325894649734
1.4844507300247127
1.475118089596745
1.4476774384208333
1.3682064981649393
1.2821593960970905
1.996565316959083
1.8485046476983
1.687325329365687
1.543851177367948
1.452305187494351
1.3798454170417958
1.1855478768935312
0.9659495403947789
0.8351386326425151
0.836145980857593
0.9542946515204886
1.159740146543739
1.3551738411055203
1.4343729615696006
1.463944539235563
1.4763439480173106
1.4849275864442433
1.4973253336141523
1.5144897536973905
1.531652138259815
1.546905817507599
1.5588215541074475
1.5648340032365942
1.5605240259887159
1.554818302972561
1.5484429916002154
1.5406911526280938
1.53162063744085
1.521867182442255
1.5099535439026304
1.4968075555185463
1.4818989552608615
1.4678964979637141
1.4515706406477702
1.4315751246484847
1.4137835986517626
1.4023413061855061
1.3981793100605424
1.3877303632458295
1.3568017208186787
-1.662591093453695
-0.758170675465975
-0.20123924070151622
-0.0013088235733245556
0.14260577874827784
0.32861709324351623
0.5703246306408296
0.8473564589488969
1.1418477099973048
1.3537422442593177
1.4534519935783812
1.472802037431415
1.481573536204515
1.490109969983
1.5007571067470564
1.513519032664619
1.5253417544519363
1.533736671025521
1.537941709982427
1.5381765185350365
1.5358934142191127
1.5307523872664581
1.5245565490547595
1.5166654940745754
1.5085203643901421
1.499418019151538
1.4908259291660377
1.483405042190534
1.477689779406963
1.4733500266468977
1.4705720753190248
1.4687239283992015
1.4667828823518705
1.4674898955616782
1.4779753704774985
1.514291684688658
1.5815110867584135
1.4292062017794533
-1.6739213979607805
-0.5892505472373174
-0.011988175511613498
0.30992568815243837
0.519460800230019
0.779731329162681
1.0500845667045855
1.2802417133621553
1.3746545793181884
1.4181563904368928
1.4467688154207072
1.463624968069733
1.474921773924116
1.4839833292598124
1.492080397719376
1.4999869675441704
1.506072662348276
1.5107242059417438
1.513529851958548
1.5135867460106183
1.512466431364417
1.510310526543072
1.5067785204269728
1.5035006575618042
1.5001614246376043
1.4974343350899555
1.4950508920969974
1.4934728686793004
1.493648068346376
1.4963309945849124
1.5031342418135119
1.5147415696712594
1.5270186014715559
1.5373585025305487
1.5480452650702181
1.5832282734834808
1.5312337403683196
1.472299578376829
-1.13280635873566
-1.1316243103009713
-1.00866911762611
-0.20803413357164183
0.375129286430804
0.7896803788449868
1.0879741432334264
1.235453493310706
1.3237431201274676
1.3777171772382688
1.4121255722375792
1.436494613378894
1.4518785562241463
1.4601970785251428
1.4657443464848439
1.4687100992184254
1.470482212384832
1.4704092922607648
1.4688342182589964
1.4666218202741195
1.4636110408227456
1.460953977408545
1.458282498284415
1.4556891531573668
1.4538080224515055
1.4528190851850935
1.4529809857971308
1.454664614883093
1.4583966042707919
1.4649187170715923
1.4748403443915883
1.4891912950582433
1.5125004926241707
1.5530493771875904
1.6126653633666064
1.6188584063225933
1.5908359558662746
1.53077710760664
1.4795501517760898
1.4926170019822604
)
;

boundaryField
{
    ".*"
    {
        type            zeroGradient;
    }
}


// ************************************************************************* //
