/*--------------------------------*- C++ -*----------------------------------*=========                 |
  \      /  F ield         | OpenFOAM: The Open Source CFD Toolbox
   \    /   O peration     | Website:  https://openfoam.org
    \  /    A nd           | Version:  6
     \/     M anipulation  |
\*---------------------------------------------------------------------------*/
FoamFile
{
    version     2.0;
    format      ascii;
    class       volScalarField;
    location    "590";
    object      PPD;
}
// * * * * * * * * * * * * * * * * * * * * * * * * * * * * * * * * * * * * * //

dimensions      [0 0 0 0 0 0 0];

internalField   nonuniform List<scalar> 
458
(
41.48893587076573
29.498740937927195
28.048491270863465
26.797695393831987
26.01405796717735
25.651657495439878
25.7573295995103
26.378471535567
27.63270781280339
29.76220304452933
33.03648088294206
36.443379634541934
37.22732458304584
37.657690559955824
38.258556358146464
44.214784721601056
43.509427517748584
43.308458811626906
43.660320631882165
43.91212088081496
44.1138365846205
43.880792250659546
43.679552919723406
43.73086754730076
43.831382522794925
43.9893283590288
44.16251493913996
44.39365044294831
44.73578647708394
45.335441083755505
45.78672705775004
46.01597152935203
46.781878251910356
38.03367283276593
30.0391020174484
29.497843877319596
28.23003672210544
27.473444195346985
27.13157089839035
27.178952196156985
27.54100088020138
28.16567492518928
29.25949878669462
31.094578852109137
33.96557131220648
37.0604808121021
37.609777758144766
37.953555409382474
35.82716411835925
35.84055672245469
36.943631374901415
41.76256369302789
42.83219990079304
42.807175059667436
43.20807089883766
43.35561127910729
43.33661204406899
43.34039345964361
43.401192494160355
43.46371750127825
43.478594826186544
43.50211790467425
43.56997111866016
43.65386629155128
43.79409391547099
44.249070775496
44.695090324628595
45.049822101129884
44.20019851635765
39.647449780988254
29.632614765868425
30.962809488135207
30.270740945315225
29.963915274525363
29.80072574010252
29.79563634147395
29.631952275021575
29.041234379741013
28.52186292928016
29.023567704033525
31.241151441051116
35.638166567008355
37.9216277096789
38.258556358146464
38.403295665827734
38.44542378629212
37.457040814783475
37.20916022730837
40.43926708073604
40.937854840346716
41.37208163040268
41.956899047533156
42.1709492642277
43.35406650279318
44.1138365846205
44.1138365846205
44.1138365846205
44.13906801580119
44.13906801580119
44.1643031882558
44.18954209313965
44.3663181909538
44.517983471591805
44.14546389738027
40.36388702805799
43.50420906069239
29.326288035109272
32.060021337449115
32.57182133785014
33.406790874435046
33.936287606246154
34.05555910845639
32.90229091101344
30.23792443940286
27.849700756944486
27.332200857062787
29.33874701393914
33.644755102571395
38.24895727049697
38.93572683513984
39.00853766739356
37.692414546033625
36.48519855959575
34.00574162854484
37.27500856774968
39.08799815020618
40.41718586813637
41.9776633549491
43.7923307934332
45.203776957709046
44.873364285008115
44.569501004271665
44.50729664547075
44.57090940583695
44.70454164412434
45.07851428892027
45.78045512390741
47.024655340882
46.96858331961464
46.194445111546635
43.08368356584842
38.09435248667294
48.52764862134105
29.722166446320372
32.88563520118208
34.70128128408386
37.415424293819314
39.78539820874075
40.25667853039474
36.59604995043624
31.263134567094014
27.25840109604391
26.09096317967355
28.180981397457202
32.5067073047792
37.53242672998406
39.934976151289476
40.0329357734796
39.44716824356655
38.00784074848068
37.93666750210544
38.73544501655765
40.34134563473202
42.435706947677964
44.64079358718645
46.79340467850013
48.29524668777703
48.92586379294998
48.97447269024228
48.953024339592574
48.86129706939617
48.704240793613174
48.59293818846057
48.556502340743336
48.51165423369387
47.71254438964489
46.26918007842969
42.269888231254
42.29091101840325
42.16026613977644
46.6386052270018
40.245352911166826
53.827828277435536
31.071708750124486
34.380885514047705
36.27141545062133
40.548961610748435
44.517983471591805
46.47128250499526
38.05136530875496
31.184829979603165
26.52488271574326
25.26503102688146
27.500297618596434
32.30735660369827
38.12684659786575
41.38796472294943
41.71036166278918
41.58627043834039
41.63589315007144
42.259739022138426
43.33719396959252
45.14603117479293
46.83303080863906
48.32096937661148
49.53226667851678
50.462743201625486
51.08409321671892
51.498703368255995
51.73203530964543
51.835762103478814
51.783896958146265
51.55054826419266
51.161811444638865
50.227372668978056
48.60771365500666
46.61526236821333
42.85904426834431
42.52692837164099
42.18035409632597
43.49038644745467
43.90215189037947
58.84942805421744
35.19605740650381
40.34612689670524
39.21024184601893
42.044742261638284
46.245464758231826
42.81173659516057
36.56802887803602
29.803457757548045
25.287951087388606
24.485391884623667
27.502721854433034
33.38086894958829
40.515554381324314
43.40891120266113
43.9877358570939
44.01294844939549
44.31579229393785
45.278219390877645
46.65404586417189
48.166666828776236
49.60972597147072
50.85100175941986
51.783896958146265
52.43243594638191
52.84771312342291
53.055397549661045
53.107322527769306
53.055397549661045
52.89963174008051
52.536242116523965
52.043256006504826
51.44686242072773
50.533621039031004
48.13187355635853
44.777638519478415
43.254547084651875
42.15324632569722
40.69187755656966
46.301110896327124
66.33014708341102
54.85557024630108
51.69328780323965
45.37294976856465
44.247045216115026
43.63925256363982
39.92502533270457
32.92108746942506
26.225135738491062
22.908282518502403
23.747372313676166
28.724200883055644
36.72140684465337
43.88692351826373
46.06694876493244
46.73073685845015
46.960960544611005
47.49899547396967
48.55257214357851
49.842195894764664
51.08409321671892
52.17296509495184
53.00347403666169
53.57469945327294
53.88631606130096
54.042127150629526
54.06809561245432
53.99019013930041
53.83437916331276
53.60066689220258
53.28907028168632
52.7957963057187
52.224853839652205
51.57647216719795
50.85100175941986
50.04894721246639
49.5433537387158
48.061091962642024
43.81920363940197
39.34938912330698
76.59521480405735
69.48604961262464
61.0625269024114
53.27846419167359
48.31056545193807
44.43465288166948
34.54033765735353
24.706154239960284
19.713203184050798
19.748972312379394
24.233414288554386
33.30033607984575
43.13282261060297
47.34515372203205
48.93895638511979
49.60972597147072
50.07479822837732
50.74743740805818
51.680177240211904
52.61410281323952
53.44486482033858
54.09406403098169
54.42165718877022
54.18682484626325
53.875945935305396
53.52860678053756
53.106338695478804
52.612387735831796
52.08150371034361
51.4335274610686
50.71932570123972
49.91064014804945
49.15260232740967
48.27095273265002
47.19485267468861
46.24134216622403
45.630324188696676
45.40853432449671
44.85285520976163
43.21839147840505
59.73078945249138
17.106728197224157
5.8397984096416735
5.000035460355562
5.421352817752208
7.245577673349473
11.813296716124057
20.149895138586544
32.45274243981761
43.05761113485082
48.37242139358223
49.41798772709338
49.893005765640964
50.35584471457519
50.93379860370258
51.62738778582949
52.27058999262627
52.72760220630396
52.95659296929404
52.96938097266912
52.84504514738183
52.56511653115019
52.227855387373666
51.798512628973
51.3556206550122
50.86107176682094
50.39468635271426
49.992264829253934
49.682607665835995
49.44764598276321
49.29732348373356
49.19735122203088
49.09238543483297
49.13061473041138
49.69807529256279
51.66940557226248
55.3301799472329
47.067665823064644
60.341688547825214
12.277383555674106
5.002975019495366
6.996450714054305
10.642997356690017
17.811542234718715
28.27274046901792
39.25159282972358
44.159889510930135
46.47532012387607
48.0121358706775
48.92168621966181
49.53272564383027
50.02361038583815
50.462750903848466
50.89197051492668
51.22258870755322
51.47542431899529
51.62797613418866
51.631070015915235
51.57015033167563
51.45293438331106
51.26094877417084
51.08283446493803
50.90144539638007
50.753355626569196
50.623963401591745
50.5383150903453
50.547823398667504
50.693453229333265
51.062927529618385
51.69387210064623
52.36185888776646
52.92483119632715
53.506939207916055
55.423703348604164
52.591323162915266
49.39079582923176
32.0283186375859
31.97302570156191
26.483809634595147
5.897574119580071
7.929905639738976
18.143448310723855
29.963682717170627
36.99334941600547
41.49053643249162
44.32194652513559
46.15269174326529
47.45919073442821
48.28755737163903
48.736496150241486
49.036238173032395
49.1966032669842
49.292461834142856
49.28851685298985
49.20331633838046
49.083677172958936
48.92093358876485
48.777377890018116
48.63310962102723
48.493126016470676
48.39162740463703
48.338282216684874
48.347014779034176
48.4378415232023
48.63927032152952
48.991608287472864
49.5283173206736
50.30601051689608
51.57200240668562
53.77956810869144
57.025518174074676
57.362034391971626
55.837957056622784
52.566462381217775
49.783376861438796
50.49186893271695
)
;

boundaryField
{
    ".*"
    {
        type            zeroGradient;
    }
}


// ************************************************************************* //
