/*--------------------------------*- C++ -*----------------------------------*\
  =========                 |
  \\      /  F ield         | OpenFOAM: The Open Source CFD Toolbox
   \\    /   O peration     | Website:  https://openfoam.org
    \\  /    A nd           | Version:  6
     \\/     M anipulation  |
\*---------------------------------------------------------------------------*/
FoamFile
{
    version     2.0;
    format      ascii;
    class       volScalarField;
    location    "590";
    object      T;
}
// * * * * * * * * * * * * * * * * * * * * * * * * * * * * * * * * * * * * * //

dimensions      [0 0 0 1 0 0 0];

internalField   nonuniform List<scalar> 
458
(
301.774
301.474
301.46
301.456
301.452
301.448
301.444
301.439
301.432
301.426
301.427
301.44
301.473
301.491
301.516
301.757
301.729
301.721
301.735
301.745
301.753
301.76
301.767
301.774
301.78
301.787
301.793
301.799
301.805
301.812
301.819
301.828
301.858
301.97
301.503
301.474
301.473
301.472
301.471
301.467
301.456
301.435
301.414
301.408
301.427
301.466
301.489
301.504
301.513
301.524
301.55
301.765
301.702
301.701
301.717
301.734
301.74
301.743
301.745
301.748
301.75
301.752
301.755
301.758
301.761
301.767
301.776
301.79
301.84
302.179
301.548
301.502
301.51
301.521
301.528
301.527
301.507
301.462
301.412
301.392
301.417
301.469
301.502
301.516
301.522
301.528
301.547
301.71
301.684
301.694
301.722
301.753
301.753
301.753
301.753
301.753
301.753
301.754
301.754
301.755
301.756
301.763
301.769
301.782
301.835
302.393
301.608
301.537
301.557
301.588
301.613
301.623
301.592
301.507
301.415
301.374
301.404
301.473
301.523
301.544
301.547
301.546
301.55
301.563
301.592
301.641
301.697
301.752
301.798
301.834
301.858
301.877
301.892
301.904
301.912
301.919
301.924
301.926
301.88
301.835
301.809
301.84
302.606
301.688
301.575
301.599
301.651
301.706
301.739
301.692
301.557
301.419
301.356
301.393
301.478
301.55
301.585
301.589
301.584
301.583
301.601
301.641
301.699
301.763
301.824
301.875
301.917
301.945
301.966
301.981
301.99
301.993
301.991
301.984
301.971
301.939
301.889
301.843
301.844
301.974
302.056
302.056
302.802
301.791
301.631
301.632
301.689
301.769
301.846
301.768
301.584
301.413
301.34
301.383
301.49
301.59
301.644
301.657
301.652
301.654
301.683
301.734
301.797
301.86
301.918
301.965
302.001
302.025
302.041
302.05
302.054
302.052
302.043
302.028
302.009
301.978
301.933
301.883
301.863
301.921
301.954
302.003
302.973
301.963
301.775
301.729
301.757
301.837
301.904
301.791
301.571
301.38
301.311
301.378
301.518
301.65
301.725
301.748
301.749
301.761
301.799
301.853
301.912
301.968
302.016
302.052
302.077
302.093
302.101
302.103
302.101
302.095
302.081
302.062
302.039
302.01
301.972
301.927
301.9
301.913
301.93
301.965
303.224
302.47
302.24
302.083
302.024
302.06
301.987
301.748
301.466
301.281
301.259
301.388
301.581
301.744
301.83
301.856
301.865
301.886
301.927
301.977
302.025
302.067
302.099
302.121
302.133
302.139
302.14
302.137
302.131
302.122
302.11
302.091
302.069
302.044
302.016
301.985
301.97
301.982
302.011
302.197
303.584
303.232
302.943
302.67
302.474
302.312
301.918
301.467
301.166
301.089
301.206
301.457
301.714
301.88
301.942
301.968
301.986
302.012
302.048
302.084
302.116
302.141
302.157
302.166
302.169
302.169
302.166
302.161
302.156
302.149
302.144
302.142
302.143
302.151
302.168
302.199
302.244
302.291
302.325
302.403
296.307
298.218
299.252
299.557
299.782
300.081
300.467
300.887
301.296
301.711
301.92
302.013
302.053
302.075
302.095
302.118
302.142
302.163
302.179
302.189
302.195
302.196
302.196
302.194
302.193
302.191
302.19
302.19
302.191
302.192
302.197
302.208
302.226
302.253
302.287
302.32
302.347
302.371
296.595
298.26
299.078
299.525
299.964
300.509
301.075
301.557
301.833
301.998
302.081
302.121
302.144
302.161
302.176
302.191
302.203
302.212
302.218
302.22
302.221
302.221
302.219
302.218
302.217
302.217
302.217
302.217
302.218
302.22
302.224
302.232
302.244
302.263
302.286
302.313
302.314
302.35
298.075
298.036
298.032
299.307
300.122
300.88
301.49
301.781
301.966
302.074
302.135
302.177
302.205
302.222
302.235
302.244
302.252
302.258
302.262
302.264
302.264
302.264
302.263
302.261
302.259
302.257
302.255
302.253
302.251
302.249
302.248
302.247
302.247
302.249
302.254
302.267
302.28
302.29
302.296
302.337
)
;

boundaryField
{
    floor
    {
        type            wallHeatTransfer;
        Tinf            uniform 305.2;
        alphaWall       uniform 0.24;
        value           nonuniform List<scalar> 
36
(
301.93
302.368
302.28
302.228
302.226
302.241
302.271
302.305
302.338
302.371
302.402
302.432
302.461
302.489
302.517
302.545
302.575
302.599
302.661
302.661
302.524
302.451
302.403
302.415
302.471
302.448
301.93
301.864
301.915
301.992
302.368
301.992
302.38
301.954
302.191
301.94
)
;
    }
    ceiling
    {
        type            wallHeatTransfer;
        Tinf            uniform 303.2;
        alphaWall       uniform 0.24;
        value           nonuniform List<scalar> 
43
(
298.373
298.331
298.323
299.507
300.294
301.03
301.622
301.901
302.079
302.182
302.24
302.282
302.309
302.327
302.34
302.35
302.359
302.366
302.372
302.376
302.378
302.378
302.378
302.377
302.375
302.373
302.37
302.367
302.363
302.359
302.354
302.349
302.346
302.344
302.344
302.351
302.361
302.372
302.381
302.424
303.566
303.231
296.991
)
;
    }
    sWall
    {
        type            wallHeatTransfer;
        Tinf            uniform 315.2;
        alphaWall       uniform 0.36;
        value           uniform 299.53;
    }
    nWall
    {
        type            wallHeatTransfer;
        Tinf            uniform 307.2;
        alphaWall       uniform 0.36;
        value           nonuniform List<scalar> 6(302.964 302.896 302.757 303.035 303.01 303.038);
    }
    sideWalls
    {
        type            empty;
    }
    glass1
    {
        type            wallHeatTransfer;
        Tinf            uniform 315.2;
        alphaWall       uniform 4.3;
        value           nonuniform List<scalar> 9(310.826 310.138 309.709 309.385 309.119 308.877 308.671 308.738 308.981);
    }
    glass2
    {
        type            wallHeatTransfer;
        Tinf            uniform 307.2;
        alphaWall       uniform 4.3;
        value           nonuniform List<scalar> 2(305.183 305.349);
    }
    sun
    {
        type            wallHeatTransfer;
        Tinf            uniform 305.2;
        alphaWall       uniform 0.24;
        value           nonuniform List<scalar> 
14
(
302.121
301.827
301.807
301.79
301.776
301.762
301.748
301.734
301.722
301.713
301.716
301.736
301.796
301.857
)
;
    }
    Table_master
    {
        type            zeroGradient;
    }
    Table_slave
    {
        type            zeroGradient;
    }
    inlet
    {
        type            fixedValue;
        value           uniform 293.15;
    }
    outlet
    {
        type            zeroGradient;
    }
}


// ************************************************************************* //
