/*--------------------------------*- C++ -*----------------------------------*\
  =========                 |
  \\      /  F ield         | OpenFOAM: The Open Source CFD Toolbox
   \\    /   O peration     | Website:  https://openfoam.org
    \\  /    A nd           | Version:  6
     \\/     M anipulation  |
\*---------------------------------------------------------------------------*/
FoamFile
{
    version     2.0;
    format      ascii;
    class       volScalarField;
    location    "24000";
    object      nut;
}
// * * * * * * * * * * * * * * * * * * * * * * * * * * * * * * * * * * * * * //

dimensions      [0 2 -1 0 0 0 0];

internalField   nonuniform List<scalar> 
778
(
0.000894295
0.000953033
0.000949552
0.000990763
0.00102854
0.00106285
0.00109481
0.00112562
0.00115664
0.00118961
0.00122105
0.00125091
0.00128032
0.00131193
0.0013449
0.000632414
0.000905256
0.000912629
0.000890584
0.000853674
0.000804338
0.000755145
0.000709805
0.000668925
0.000632279
0.000599636
0.00057032
0.000543618
0.000518695
0.000494439
0.000469074
0.000448009
0.000405535
0.00131077
0.00258099
0.00226496
0.00261422
0.00286762
0.00313629
0.00340434
0.00365143
0.0038504
0.00396632
0.00403445
0.00400641
0.00380648
0.00331132
0.00241828
0.00147243
0.00140385
0.00134375
0.00113074
0.00192632
0.00267004
0.00310941
0.00313005
0.0024704
0.00211273
0.00186496
0.00167694
0.00152734
0.00139964
0.00128678
0.00118179
0.00107908
0.00098691
0.000907435
0.00102202
0.00051406
0.00166401
0.00360415
0.00267224
0.0038222
0.00427078
0.00465044
0.00499533
0.00529897
0.00555632
0.00575818
0.00595364
0.00615914
0.00634769
0.00645935
0.00638365
0.00584373
0.00427325
0.00164809
0.00142684
0.0030527
0.00425961
0.00483033
0.00439235
0.00115915
0.00100798
0.000891377
0.000800141
0.000727521
0.000668889
0.000621053
0.000582138
0.000551795
0.000606702
0.000713651
0.00112984
0.000584715
0.00200523
0.00485799
0.00255726
0.00429822
0.00496246
0.00531798
0.00557949
0.00577308
0.00591772
0.00603509
0.00620167
0.00648278
0.00689254
0.00740731
0.00792418
0.00817758
0.00767648
0.00572329
0.00164156
0.00380504
0.00565804
0.00659804
0.00682924
0.00582928
0.00132002
0.00120061
0.00110822
0.00103143
0.000965977
0.000907187
0.000851749
0.000796682
0.000737202
0.000688847
0.000714048
0.00122306
0.000643662
0.00234195
0.0064325
0.00258011
0.00408658
0.00510797
0.00541127
0.0055216
0.00552622
0.00547179
0.0054237
0.00549369
0.00576691
0.00626769
0.00697627
0.00779774
0.00855417
0.00903411
0.00902835
0.00810328
0.00824623
0.00843487
0.00846051
0.00828777
0.00775676
0.00617241
0.00533169
0.00475598
0.00428777
0.00382906
0.00338489
0.00295035
0.00251626
0.00207016
0.00159022
0.00121358
0.00121203
0.000958836
0.00076735
0.00101255
0.000967893
0.00267357
0.00819557
0.00303752
0.00344655
0.00489471
0.00523124
0.00520474
0.00501787
0.00475056
0.00453011
0.00452549
0.00481166
0.00538219
0.0062036
0.00716497
0.0081251
0.00894333
0.00946634
0.00956182
0.00946591
0.00929752
0.00905866
0.00875195
0.00836205
0.00779345
0.00724594
0.006749
0.00626816
0.0057495
0.00519589
0.0046046
0.00397045
0.00328942
0.0025669
0.00191301
0.00143642
0.0011147
0.0012535
0.00217911
0.00115746
0.0030121
0.00982707
0.00404796
0.00282373
0.00439855
0.00494869
0.00488796
0.00458523
0.0041459
0.00375929
0.00374827
0.00410934
0.00476205
0.00567958
0.00672429
0.00775853
0.00864928
0.00928785
0.00958194
0.00955935
0.00934906
0.00903053
0.00866594
0.0083024
0.00795092
0.00762855
0.00732584
0.0070024
0.00661217
0.00614263
0.00558667
0.00494152
0.00420984
0.0034107
0.00263013
0.00190169
0.00139994
0.00125399
0.00220985
0.00136482
0.00330345
0.0110642
0.00552018
0.00268855
0.00348499
0.00438761
0.00451341
0.00426439
0.00374561
0.00321899
0.00333856
0.00381589
0.00454529
0.00549055
0.00657476
0.00765723
0.00858144
0.00922436
0.00951693
0.00947931
0.00920806
0.00880778
0.00837732
0.00799565
0.00770146
0.00749131
0.00732753
0.00714932
0.00690162
0.00655496
0.00609549
0.00552042
0.00483562
0.00406233
0.00325968
0.00244674
0.00171526
0.00113579
0.00321887
0.00178873
0.00339328
0.0104839
0.00683647
0.00347639
0.00236277
0.00289662
0.00338908
0.00343021
0.00302907
0.00294459
0.00325072
0.00381163
0.00459947
0.005601
0.00673667
0.00785227
0.00877337
0.00936699
0.00957618
0.00943362
0.00904041
0.00852449
0.0080128
0.0076047
0.00734565
0.00721842
0.00716082
0.0070924
0.00695021
0.00670005
0.00632823
0.00583332
0.00522232
0.00451303
0.00373632
0.00286511
0.00170101
0.00137969
0.00495573
0.00202107
0.00332465
0.00845871
0.00706626
0.00477516
0.00315222
0.00244093
0.00231263
0.00242175
0.00262541
0.0029499
0.0034094
0.00403995
0.00489578
0.00597473
0.00717177
0.00830315
0.00917646
0.00965836
0.00970945
0.00938673
0.00881803
0.00816374
0.00758026
0.00718074
0.00699759
0.00697601
0.00701567
0.00701497
0.00692312
0.00672064
0.00640087
0.00596361
0.00541351
0.00475598
0.0039613
0.00282082
0.00136618
0.00225222
0.00509381
0.00207295
0.00311446
0.00723187
0.00683539
0.0054679
0.00420617
0.00338558
0.00298031
0.00288924
0.00305796
0.00336771
0.00381633
0.00448074
0.00542477
0.00660714
0.00786516
0.00897308
0.00972631
0.0100072
0.00981051
0.00923457
0.00845257
0.00767044
0.00707718
0.0067794
0.00674452
0.00684186
0.00694062
0.00694238
0.00684569
0.00664934
0.00634911
0.00594131
0.00542238
0.00476507
0.00379707
0.00225644
0.00142866
0.00284041
0.00514575
0.00207062
0.00283619
0.00652146
0.00659559
0.00579055
0.00492416
0.00427268
0.00388954
0.00375265
0.003788
0.00397485
0.00438561
0.00512652
0.00621726
0.00752704
0.0088127
0.00981074
0.0103261
0.0102837
0.00973742
0.00884826
0.00785816
0.00703263
0.00656576
0.00647022
0.0065502
0.00668015
0.00676651
0.00674326
0.00663118
0.0064318
0.00613813
0.00574035
0.00521901
0.00447124
0.00308522
0.00156654
0.00183129
0.00321676
0.00480616
0.00201782
0.00258655
0.00583368
0.00629872
0.00591747
0.00536102
0.00489406
0.00458386
0.00443273
0.00438775
0.00454598
0.00506599
0.0060335
0.00735374
0.00877292
0.00997722
0.0107024
0.0108075
0.0102969
0.00931533
0.0081119
0.00702654
0.0063295
0.00601831
0.00597333
0.00605863
0.00618093
0.00626339
0.00624439
0.00613405
0.00593203
0.00563032
0.0052148
0.00463966
0.00369243
0.00216996
0.00150491
0.0022123
0.00338711
0.00424727
0.0019437
0.00259425
0.0057899
0.00643535
0.00598953
0.00553912
0.00517053
0.00490493
0.00473265
0.00472397
0.0051076
0.00602508
0.00739683
0.00894697
0.0103205
0.0112017
0.0114009
0.0108927
0.00979352
0.00838531
0.00702493
0.00603764
0.00544733
0.00515777
0.0050786
0.00513132
0.00524043
0.00532903
0.00531939
0.00520215
0.00497452
0.00463404
0.00418255
0.00360726
0.0028192
0.00187459
0.00160407
0.00236544
0.00351335
0.00455161
0.0019243
0.00234164
0.00243549
0.00359193
0.00421889
0.00441213
0.00441443
0.00437092
0.00445012
0.00498594
0.00612943
0.00773793
0.00947535
0.0109659
0.0118954
0.0120754
0.0114644
0.0102093
0.00854922
0.00696474
0.00572124
0.00487419
0.00437229
0.00412636
0.00403825
0.00404034
0.00408336
0.00411118
0.00405252
0.00387681
0.00358955
0.00321773
0.0028154
0.00244021
0.00211278
0.00183565
0.00181231
0.00247009
0.00377661
0.00478959
0.00206725
0.000807745
0.00146593
0.00226286
0.00290436
0.00364602
0.00490043
0.00674407
0.00878881
0.0106509
0.0120465
0.0127827
0.0127323
0.011894
0.0103511
0.00850696
0.00675146
0.00534834
0.00439185
0.00384848
0.00356569
0.003412
0.00331991
0.00325828
0.00320437
0.00312797
0.00299332
0.0027852
0.00253322
0.0022933
0.00212094
0.00203936
0.00204043
0.00211954
0.0023355
0.00292282
0.00444317
0.00498265
0.00210658
0.00149727
0.00207879
0.00303633
0.00474603
0.00706531
0.00938877
0.0111911
0.0124939
0.0132863
0.0135164
0.0130874
0.0119006
0.0101364
0.00813324
0.00628382
0.00487654
0.0040223
0.00358068
0.0033498
0.00321319
0.00312429
0.00306344
0.00301654
0.0029669
0.00289415
0.0027838
0.00264804
0.00252029
0.00243865
0.00242781
0.00248937
0.00261391
0.00280743
0.00312112
0.00369933
0.00511477
0.0053942
0.00214427
0.00275722
0.00666539
0.00612517
0.00548298
0.00698178
0.00932303
0.0113027
0.0126409
0.013348
0.0135274
0.0132664
0.0125297
0.0112798
0.00957272
0.00764556
0.00586495
0.0046017
0.00390192
0.00354164
0.00333675
0.00321012
0.00313773
0.00311004
0.00311617
0.00313949
0.00315873
0.00315411
0.00312056
0.00308312
0.00306241
0.00307274
0.00312116
0.00320583
0.00332095
0.00346928
0.00367772
0.00401498
0.00460958
0.00489763
0.00204786
0.00263901
0.0051005
0.00658868
0.00841287
0.00934915
0.0103226
0.0108947
0.0110386
0.0108318
0.0103324
0.00956638
0.00854892
0.00733425
0.00606936
0.00497609
0.00418822
0.0036658
0.00333218
0.00310983
0.00296466
0.00288799
0.00287753
0.0029273
0.0030233
0.00314272
0.00325675
0.00333801
0.00337992
0.00341362
0.0034575
0.00352123
0.00360839
0.0037188
0.00385283
0.00401728
0.00421915
0.00444799
0.00488707
0.00533489
0.00200197
0.00247425
0.00211956
0.00210911
0.00217033
0.00222099
0.00215451
0.00202537
0.00187505
0.00172544
0.0015849
0.00145521
0.00133739
0.00123518
0.00115479
0.00110082
0.00107334
0.00106488
0.00106667
0.00107651
0.00109317
0.00111515
0.00114051
0.00116726
0.00119382
0.00121933
0.0012437
0.00126767
0.00129219
0.00131829
0.00134765
0.00138137
0.00141997
0.00146357
0.00151235
0.00156735
0.00163336
0.00172399
0.00184789
0.00199798
0.00192184
)
;

boundaryField
{
    floor
    {
        type            nutkWallFunction;
        Cmu             0.09;
        kappa           0.41;
        E               9.8;
        value           nonuniform List<scalar> 
36
(
0.00016058
7.63876e-05
0.000109508
0.000110386
0.000107761
0.00010335
9.74184e-05
9.14613e-05
8.593e-05
8.09064e-05
7.63718e-05
7.23056e-05
6.8631e-05
6.52638e-05
6.21025e-05
5.90076e-05
5.5751e-05
5.30295e-05
4.7492e-05
4.74919e-05
6.15121e-05
7.04378e-05
7.77835e-05
9.29428e-05
0.000122176
0.000116927
0.00016058
0.000175013
0.000167269
0.000160449
7.63875e-05
0.000160449
0.000135986
0.000194671
0.000169868
0.000193943
)
;
    }
    ceiling
    {
        type            nutkWallFunction;
        Cmu             0.09;
        kappa           0.41;
        E               9.8;
        value           nonuniform List<scalar> 
43
(
0.000284378
0.000246312
0.000245183
0.000251806
0.000257276
0.00025012
0.000236131
0.000219716
0.000203231
0.000187601
0.000173044
0.000159699
0.000148024
0.00013877
0.00013252
0.000129317
0.000128331
0.000128535
0.000129675
0.000131611
0.000134166
0.000137114
0.000140221
0.000143303
0.000146257
0.000149073
0.000151834
0.00015465
0.000157635
0.000160983
0.000164818
0.000169196
0.00017413
0.000179625
0.000185779
0.000193075
0.000203013
0.000216576
0.000232984
0.000224837
0.000270418
0.000280447
0.0001776
)
;
    }
    sWall
    {
        type            nutkWallFunction;
        Cmu             0.09;
        kappa           0.41;
        E               9.8;
        value           nonuniform List<scalar> 9(0.00037389 0.000352084 0.000322983 0.000296626 0.000297438 0.000270507 0.000314365 0.000301918 0.000284479);
    }
    nWall
    {
        type            nutkWallFunction;
        Cmu             0.09;
        kappa           0.41;
        E               9.8;
        value           nonuniform List<scalar> 
14
(
0.000116935
0.000139094
0.000162854
0.000241351
0.000241051
0.00023527
0.000227204
0.00022523
0.000240819
0.000245005
0.000249064
0.000238577
0.000233543
0.000224872
)
;
    }
    sideWalls
    {
        type            empty;
    }
    glass1
    {
        type            nutkWallFunction;
        Cmu             0.09;
        kappa           0.41;
        E               9.8;
        value           nonuniform List<scalar> 9(0.000108246 0.000156881 0.000196734 0.000234346 0.000270788 0.000306137 0.00034175 0.00037207 0.000381371);
    }
    glass2
    {
        type            nutkWallFunction;
        Cmu             0.09;
        kappa           0.41;
        E               9.8;
        value           nonuniform List<scalar> 2(0.000210346 0.000235857);
    }
    sun
    {
        type            nutkWallFunction;
        Cmu             0.09;
        kappa           0.41;
        E               9.8;
        value           nonuniform List<scalar> 
14
(
0.000108205
0.000115177
0.000114765
0.00011963
0.000124069
0.000128085
0.000131811
0.000135393
0.000138987
0.000142796
0.000146417
0.000149846
0.000153214
0.000156824
)
;
    }
    Table_master
    {
        type            nutkWallFunction;
        Cmu             0.09;
        kappa           0.41;
        E               9.8;
        value           nonuniform List<scalar> 9(0.000139269 0.000121649 0.000107853 9.69115e-05 8.80978e-05 8.09058e-05 7.4982e-05 7.01222e-05 6.63057e-05);
    }
    Table_slave
    {
        type            nutkWallFunction;
        Cmu             0.09;
        kappa           0.41;
        E               9.8;
        value           nonuniform List<scalar> 9(0.000157735 0.000144054 0.000133364 0.000124401 0.000116702 0.000109735 0.000103117 9.64938e-05 8.92787e-05);
    }
    inlet
    {
        type            calculated;
        value           uniform 0.000167705;
    }
    outlet
    {
        type            calculated;
        value           nonuniform List<scalar> 2(0.00275722 0.00666539);
    }
}


// ************************************************************************* //
