/*--------------------------------*- C++ -*----------------------------------*\
  =========                 |
  \\      /  F ield         | OpenFOAM: The Open Source CFD Toolbox
   \\    /   O peration     | Website:  https://openfoam.org
    \\  /    A nd           | Version:  6
     \\/     M anipulation  |
\*---------------------------------------------------------------------------*/
FoamFile
{
    version     2.0;
    format      ascii;
    class       volScalarField;
    location    "740";
    object      epsilon;
}
// * * * * * * * * * * * * * * * * * * * * * * * * * * * * * * * * * * * * * //

dimensions      [0 2 -3 0 0 0 0];

internalField   nonuniform List<scalar> 
458
(
0.000432954
0.000558104
0.000596797
0.000686616
0.000776937
0.000869453
0.000969087
0.00107774
0.00117236
0.00123452
0.0012416
0.00117509
0.0010224
0.0007441
0.00032505
3.92422e-05
6.32161e-05
9.21263e-05
0.000104448
9.96251e-05
8.16379e-05
6.44197e-05
5.12322e-05
4.13793e-05
3.39224e-05
2.81925e-05
2.37426e-05
2.02115e-05
1.7317e-05
1.48403e-05
1.2603e-05
1.1386e-05
8.83866e-06
0.00106134
0.00158376
0.000518749
0.000502919
0.000518794
0.000551311
0.000606719
0.000688999
0.000780311
0.000854559
0.000882623
0.000848308
0.000757278
0.000624244
0.000502234
0.000747631
0.00042694
0.000231877
3.83008e-05
7.53789e-05
9.27882e-05
9.34858e-05
8.97906e-05
9.00933e-05
7.06027e-05
5.35224e-05
4.08265e-05
3.15504e-05
2.47506e-05
1.97302e-05
1.59734e-05
1.3173e-05
1.14097e-05
1.06914e-05
3.04806e-05
2.00732e-05
0.00190771
0.00384851
0.000604107
0.000458569
0.00046634
0.000508538
0.000580929
0.000684246
0.00079782
0.000885119
0.000918788
0.000888623
0.00080256
0.000667564
0.000517963
0.000416712
0.000353339
0.000382111
0.0001399
0.000139247
0.000125627
0.000111587
0.0001036
0.000198252
0.000133028
9.11686e-05
6.45492e-05
4.73012e-05
3.58227e-05
2.79939e-05
2.2569e-05
1.88711e-05
1.48315e-05
1.31296e-05
6.48522e-05
3.31278e-05
0.00306371
0.00799558
0.000904317
0.000439224
0.00042948
0.000481571
0.000575412
0.000718557
0.000863465
0.000958907
0.000990173
0.000953792
0.000855942
0.000703869
0.000548933
0.000432721
0.000366188
0.0003808
0.000584267
0.000376116
0.000245379
0.000178444
0.000140603
0.000123118
0.000283437
0.000218314
0.000180216
0.00015513
0.000135828
0.000118296
0.000103111
8.85406e-05
7.3331e-05
4.54125e-05
2.92977e-05
0.000114621
5.0617e-05
0.00465088
0.0144284
0.0017412
0.000471157
0.000395886
0.00045195
0.000589448
0.000833643
0.00101936
0.00111272
0.0011293
0.0010701
0.000938171
0.000754248
0.000565254
0.000420383
0.000331934
0.000302926
0.000304026
0.0002538
0.000209562
0.000175287
0.000146451
0.000122202
0.000113181
0.000103912
9.76193e-05
9.22617e-05
8.62548e-05
7.88125e-05
7.09194e-05
6.31839e-05
5.59227e-05
4.60417e-05
3.6197e-05
7.47475e-05
0.000114572
0.000120961
0.000143498
0.000184273
0.00687324
0.0217359
0.00400325
0.000791344
0.000465512
0.000474543
0.00070174
0.00112108
0.00130727
0.00136695
0.00134466
0.00124717
0.00106805
0.000825809
0.000578044
0.000389035
0.000279079
0.00023875
0.000228444
0.000218449
0.000201336
0.00017695
0.000149466
0.000123894
0.000107435
0.00010099
9.98101e-05
9.93953e-05
9.7248e-05
9.17001e-05
8.17387e-05
7.04712e-05
5.98222e-05
5.01595e-05
4.3449e-05
5.55247e-05
8.83475e-05
0.000106121
0.00020669
0.000205612
0.00966015
0.0261953
0.00879777
0.00280273
0.00145573
0.00114245
0.00148503
0.00172818
0.00178733
0.00175042
0.00165109
0.00148466
0.00123087
0.000908727
0.00058863
0.000356184
0.000234739
0.000200437
0.000202596
0.000203239
0.00019025
0.000167048
0.000141503
0.000120329
0.000109159
0.000108614
0.000113709
0.000120191
0.000125757
0.000128199
0.000124118
0.00011111
9.75113e-05
8.5958e-05
8.04706e-05
8.87423e-05
0.000120601
0.000176791
0.000327327
0.000344828
0.010448
0.0300924
0.0160955
0.00965457
0.00597287
0.00418375
0.00338593
0.00287773
0.00253964
0.00228269
0.00204062
0.00176232
0.00139814
0.000968922
0.000561656
0.000300698
0.000190588
0.000174591
0.000179844
0.000177321
0.000162387
0.000142109
0.00012424
0.000113617
0.000112282
0.000119094
0.000131196
0.000146872
0.000165746
0.000187728
0.000212029
0.000232955
0.000246041
0.000273167
0.000329142
0.000480122
0.000820477
0.00137757
0.00410984
0.00128191
0.00984444
0.017256
0.0132408
0.00999069
0.00750885
0.0057951
0.00459095
0.0037922
0.00325274
0.0028256
0.00242879
0.00200794
0.0014847
0.000914446
0.00040715
0.000216232
0.00015903
0.000147683
0.000144602
0.000137066
0.000124711
0.000112572
0.000105027
0.000104143
0.000109971
0.00012153
0.00013807
0.000159894
0.000188356
0.000225709
0.000275022
0.000339915
0.000427244
0.000551958
0.00073403
0.00097669
0.00125089
0.00149852
0.0017033
0.00104491
0.00347845
0.00471987
0.00512322
0.00502922
0.00473466
0.00432184
0.0037858
0.00316072
0.00254996
0.0019495
0.00116362
0.000536446
0.000254488
0.000159679
0.000129174
0.000118204
0.000110931
0.000103105
9.54461e-05
8.99492e-05
8.84133e-05
9.127e-05
9.8128e-05
0.000108584
0.000122638
0.000140871
0.000164528
0.000195736
0.000237964
0.000296987
0.000378451
0.000488585
0.000629952
0.000786461
0.00091133
0.000944867
0.000871324
0.000544324
0.002895
0.00862378
0.00828578
0.00717644
0.00607844
0.00479233
0.00348069
0.00225777
0.00128379
0.00071028
0.000375171
0.00021528
0.000151112
0.000124003
0.00011091
0.000102017
9.40289e-05
8.68727e-05
8.15502e-05
7.87965e-05
7.88881e-05
8.19362e-05
8.79014e-05
9.69639e-05
0.000109646
0.000126855
0.000149983
0.000181102
0.00022317
0.000279957
0.000356592
0.000458277
0.000585842
0.000728666
0.000842116
0.000956354
0.00073375
0.000565834
0.00336801
0.00362383
0.00386703
0.00532514
0.00449637
0.00312869
0.00187905
0.00115835
0.000824
0.00057253
0.000398571
0.000290089
0.000215254
0.000168038
0.000139668
0.000121094
0.000107409
9.64952e-05
8.80661e-05
8.26646e-05
8.07071e-05
8.21697e-05
8.6627e-05
9.34681e-05
0.000102615
0.000114203
0.000128577
0.000146323
0.0001684
0.000196443
0.000231961
0.00027628
0.000331566
0.00040049
0.000486064
0.000603697
0.000660627
0.000620862
0.000499622
0.000395276
)
;

boundaryField
{
    floor
    {
        Cmu             0.09;
        kappa           0.41;
        E               9.8;
        type            epsilonWallFunction;
        value           nonuniform List<scalar> 
36
(
0.00032505
3.92422e-05
6.32161e-05
9.21263e-05
0.000104448
9.96251e-05
8.16379e-05
6.44197e-05
5.12322e-05
4.13793e-05
3.39224e-05
2.81925e-05
2.37426e-05
2.02115e-05
1.7317e-05
1.48403e-05
1.2603e-05
1.1386e-05
8.83866e-06
8.83866e-06
2.00732e-05
3.31278e-05
5.0617e-05
0.000120961
0.000143498
0.000184273
0.00032505
0.000747631
0.00042694
0.000231877
3.92422e-05
0.000231877
3.83008e-05
0.000382111
0.0001399
0.000584267
)
;
    }
    ceiling
    {
        Cmu             0.09;
        kappa           0.41;
        E               9.8;
        type            epsilonWallFunction;
        value           nonuniform List<scalar> 
43
(
0.00336801
0.00362383
0.00386703
0.00532514
0.00449637
0.00312869
0.00187905
0.00115835
0.000824
0.00057253
0.000398571
0.000290089
0.000215254
0.000168038
0.000139668
0.000121094
0.000107409
9.64952e-05
8.80661e-05
8.26646e-05
8.07071e-05
8.21697e-05
8.6627e-05
9.34681e-05
0.000102615
0.000114203
0.000128577
0.000146323
0.0001684
0.000196443
0.000231961
0.00027628
0.000331566
0.00040049
0.000486064
0.000603697
0.000660627
0.000620862
0.000499622
0.000395276
0.00984444
0.017256
0.002895
)
;
    }
    sWall
    {
        Cmu             0.09;
        kappa           0.41;
        E               9.8;
        type            epsilonWallFunction;
        value           uniform 0.00336801;
    }
    nWall
    {
        Cmu             0.09;
        kappa           0.41;
        E               9.8;
        type            epsilonWallFunction;
        value           nonuniform List<scalar> 6(0.000184273 0.000205612 0.000344828 0.000544324 0.000565834 0.000395276);
    }
    sideWalls
    {
        type            empty;
    }
    glass1
    {
        Cmu             0.09;
        kappa           0.41;
        E               9.8;
        type            epsilonWallFunction;
        value           nonuniform List<scalar> 9(0.000432954 0.00106134 0.00190771 0.00306371 0.00465088 0.00687324 0.00966015 0.010448 0.00984444);
    }
    glass2
    {
        Cmu             0.09;
        kappa           0.41;
        E               9.8;
        type            epsilonWallFunction;
        value           nonuniform List<scalar> 2(0.00128191 0.00104491);
    }
    sun
    {
        Cmu             0.09;
        kappa           0.41;
        E               9.8;
        type            epsilonWallFunction;
        value           nonuniform List<scalar> 
14
(
0.000432954
0.000558104
0.000596797
0.000686616
0.000776937
0.000869453
0.000969087
0.00107774
0.00117236
0.00123452
0.0012416
0.00117509
0.0010224
0.0007441
)
;
    }
    Table_master
    {
        Cmu             0.09;
        kappa           0.41;
        E               9.8;
        type            epsilonWallFunction;
        value           nonuniform List<scalar> 9(0.000198252 0.000133028 9.11686e-05 6.45492e-05 4.73012e-05 3.58227e-05 2.79939e-05 2.2569e-05 1.88711e-05);
    }
    Table_slave
    {
        Cmu             0.09;
        kappa           0.41;
        E               9.8;
        type            epsilonWallFunction;
        value           nonuniform List<scalar> 9(0.000283437 0.000218314 0.000180216 0.00015513 0.000135828 0.000118296 0.000103111 8.85406e-05 7.3331e-05);
    }
    inlet
    {
        type            turbulentMixingLengthDissipationRateInlet;
        mixingLength    0.01;
        phi             phi;
        k               k;
        value           uniform 0.000471672;
    }
    outlet
    {
        type            zeroGradient;
    }
}


// ************************************************************************* //
