/*--------------------------------*- C++ -*----------------------------------*\
  =========                 |
  \\      /  F ield         | OpenFOAM: The Open Source CFD Toolbox
   \\    /   O peration     | Website:  https://openfoam.org
    \\  /    A nd           | Version:  6
     \\/     M anipulation  |
\*---------------------------------------------------------------------------*/
FoamFile
{
    version     2.0;
    format      ascii;
    class       surfaceScalarField;
    location    "37799.9999987137489";
    object      phi;
}
// * * * * * * * * * * * * * * * * * * * * * * * * * * * * * * * * * * * * * //

dimensions      [1 0 -1 0 0 0 0];

internalField   nonuniform List<scalar> 
1482
(
-0.00279975
0.00286378
-0.00348389
0.000684146
-0.00414445
0.000660559
-0.00475837
0.000613915
-0.00527955
0.000521184
-0.00569128
0.000411727
-0.00598235
0.000291068
-0.00613972
0.000157372
-0.00614607
6.35609e-06
-0.00597543
-0.000170639
-0.00559783
-0.000377607
-0.00498216
-0.000615666
-0.00405819
-0.000923972
-0.00257965
-0.00147854
-0.00257672
-6.38909e-05
6.87457e-05
0.000781201
-0.000845092
0.00143501
-0.000653807
0.0018357
-0.000400689
0.00205839
-0.000222698
0.00216318
-0.000104784
0.00221045
-4.72762e-05
0.00223321
-2.27549e-05
0.002243
-9.79396e-06
0.00224397
-9.70963e-07
0.00223695
7.02006e-06
0.00221792
1.90356e-05
0.00217353
4.43827e-05
0.00207056
0.000102977
0.00185347
0.000217084
0.00149517
0.000358301
0.00102234
0.000472828
0.00102878
-0.00204033
0.00507443
-0.00290838
0.00155219
-0.00369407
0.00144626
-0.00434492
0.00126476
-0.00488195
0.00105822
-0.00531049
0.000840263
-0.00562877
0.000609356
-0.00583005
0.000358646
-0.00590366
7.99638e-05
-0.00584176
-0.000232536
-0.00563851
-0.000580857
-0.00528254
-0.000971635
-0.00477263
-0.00143388
-0.00428679
-0.00196438
-0.00470272
-0.0021608
-0.00311692
-0.00158036
-0.00163429
-0.00147694
-0.00161944
0.00131806
-0.00123911
0.00166298
-0.00119
0.00191574
-0.000906569
0.00210816
-0.000593111
0.00221665
-0.000331192
0.00222585
-0.000113981
0.0022278
-4.92283e-05
0.00222935
-2.43085e-05
0.00223026
-1.06955e-05
0.00223023
-9.48722e-07
0.00222887
8.38432e-06
0.00222467
2.3232e-05
0.00221202
5.70348e-05
0.00215
0.000165001
0.00190004
0.000467043
0.00146983
0.000788508
0.00090483
0.00103783
0.00195049
-0.00148821
0.00682057
-0.00235903
0.002423
-0.00312886
0.00221609
-0.0037129
0.0018488
-0.00418334
0.00152866
-0.00455455
0.00121147
-0.00482837
0.000883171
-0.00500159
0.000531862
-0.00506782
0.000146202
-0.005018
-0.000282354
-0.00484135
-0.000757513
-0.00453035
-0.00128263
-0.00411576
-0.00184848
-0.00371822
-0.00236192
-0.00329773
-0.00258128
-0.00236643
-0.00251166
-0.00127283
-0.00257055
-0.00287944
0.00115127
-0.00237592
0.00165503
-0.00169376
0.00195385
-0.00120539
0.0021475
-0.000786762
0.00217941
-0.000363098
0.00206558
0.00201651
0.00199235
0.00198181
0.00198102
0.00198955
0.00201294
0.00207013
0.00223528
0.00187694
0.000825383
0.00142868
0.00123677
0.000807707
0.00165881
0.00278423
-0.00110602
0.00825779
-0.00192787
0.00324485
-0.00256976
0.00285798
-0.00302993
0.00230896
-0.00339725
0.00189599
-0.0036858
0.00150003
-0.00389861
0.00109597
-0.00403384
0.000667102
-0.00408403
0.000196391
-0.00403599
-0.000330397
-0.0038774
-0.00091611
-0.00360404
-0.00155599
-0.00323843
-0.00221409
-0.00281636
-0.00278399
-0.00227681
-0.00312084
-0.00155705
-0.00323142
-0.000868796
-0.00325881
-0.000688644
-0.00305959
0.00144784
-0.00212104
0.00137882
-0.0023069
0.00169397
-0.00200891
0.00200631
-0.00151773
0.00227238
-0.00105283
0.00254759
-0.000638308
0.00286368
-0.000316248
0.00303245
-0.000168922
0.00309861
-6.63177e-05
0.00308274
1.57192e-05
0.00299364
8.89483e-05
0.00283231
0.000161173
0.00259095
0.000241208
0.00224661
0.000344187
0.00174194
0.000504516
0.00160568
0.000961643
0.00127854
0.00156391
0.000751651
0.0021857
0.00357016
-0.000803737
0.00945471
-0.00157983
0.00402094
-0.00204833
0.00332649
-0.00236388
0.00262452
-0.00260806
0.00214016
-0.00279336
0.00168533
-0.00292483
0.00122744
-0.0030032
0.000745476
-0.00302196
0.000215146
-0.0029645
-0.00038785
-0.00281756
-0.00106305
-0.00257408
-0.00179947
-0.00224053
-0.00254763
-0.00182402
-0.00320051
-0.00131864
-0.00362622
-0.000742029
-0.00380803
-0.000210651
-0.00379019
0.000266603
-0.00353685
0.00112749
-0.00298193
0.00149299
-0.00267241
0.00175133
-0.00226724
0.0020034
-0.0017698
0.0022331
-0.00128253
0.00244754
-0.000852749
0.00264989
-0.000518591
0.00276161
-0.000280648
0.0027995
-0.00010421
0.00277518
4.00402e-05
0.00269496
0.000169173
0.00256128
0.000294853
0.00237299
0.000429494
0.0021279
0.000589284
0.00183439
0.000798026
0.00163006
0.00116597
0.00149145
0.00170251
0.00131745
0.0023597
0.00231373
0.00257388
0.00134432
0.00100431
0.00188274
-0.000509702
0.00200135
-0.000575838
0.0104769
-0.0013247
0.0047698
-0.00158416
0.00358594
-0.00174992
0.00279027
-0.00186371
0.00225396
-0.001935
0.00175662
-0.00197025
0.00126269
-0.00197377
0.000749
-0.00194236
0.000183733
-0.00185437
-0.000475844
-0.00169996
-0.00121746
-0.00146908
-0.00203034
-0.00116462
-0.0028521
-0.000792362
-0.00357276
-0.000372632
-0.00404595
6.76807e-05
-0.00424834
0.000472947
-0.00419546
0.000847358
-0.00391126
0.00129811
-0.00343268
0.00159653
-0.00297083
0.00179932
-0.00247004
0.00197048
-0.00194096
0.00212222
-0.00143427
0.0022573
-0.00098783
0.00236341
-0.000624697
0.0024233
-0.000340539
0.00243625
-0.000117155
0.00240722
6.90674e-05
0.00234085
0.000235539
0.00224086
0.000394849
0.0021113
0.000559046
0.00195947
0.00074112
0.00180036
0.000957137
0.00171109
0.00125523
0.0017723
0.00164131
0.00199142
0.00214057
0.0022454
0.00231991
0.00176284
0.00148687
0.00083616
0.00041697
0.00293476
-0.000543524
0.0115127
-0.0012437
0.00546998
-0.00119182
0.00353407
-0.00119997
0.00279842
-0.00119211
0.0022461
-0.00115842
0.00172293
-0.00110108
0.00120535
-0.00102588
0.000673792
-0.000927136
8.49929e-05
-0.00077808
-0.0006249
-0.000588808
-0.00140673
-0.000348744
-0.00227041
-6.50291e-05
-0.00313582
0.000239592
-0.00387738
0.000549396
-0.00435575
0.000844463
-0.00454341
0.00110743
-0.00445843
0.00134074
-0.00414457
0.00157226
-0.00366421
0.00173154
-0.00313011
0.00183103
-0.00256953
0.00190089
-0.00201081
0.00195699
-0.00149037
0.00200458
-0.00103543
0.00203841
-0.000658528
0.00205254
-0.000354664
0.00204319
-0.000107807
0.00201079
0.000101472
0.00195812
0.000288208
0.00188874
0.000464229
0.00180774
0.000640041
0.00172379
0.000825069
0.00165253
0.0010284
0.00163859
0.00126917
0.00172942
0.00155048
0.00195032
0.00191968
0.00222202
0.00204821
0.00224666
0.00146223
0.0016571
0.00100652
0.00469454
-0.000483759
0.0125319
-0.00105164
0.00603786
-0.000697397
0.00317983
-0.000636317
0.00273734
-0.000567692
0.00217747
-0.000462703
0.00161794
-0.000333334
0.00107598
-0.000181719
0.000522177
7.87729e-06
-0.000104604
0.000226227
-0.00084325
0.000466107
-0.00164661
0.000723816
-0.00252812
0.000980568
-0.00339257
0.0012088
-0.00410561
0.00140791
-0.00455486
0.00156898
-0.00470447
0.00168673
-0.00457618
0.00176584
-0.00422368
0.00181869
-0.00371706
0.00182846
-0.00313989
0.00180351
-0.00254458
0.001763
-0.00197031
0.00172203
-0.0014494
0.00168817
-0.00100156
0.00166137
-0.000631734
0.00163751
-0.000330799
0.00161139
-8.16852e-05
0.00158037
0.000132488
0.00154428
0.000324302
0.00150406
0.000504449
0.00146254
0.000681558
0.00142577
0.000861842
0.00140499
0.00104918
0.00142526
0.0012489
0.00151936
0.00145638
0.00174689
0.00169215
0.00207897
0.00171613
0.00223869
0.00130251
0.00174042
0.00150477
0.00680212
0.00297866
0.0101404
0.00202328
0.00699324
0.000869855
0.00433325
0.000371355
0.00323584
0.000214516
0.00233431
0.000271181
0.00156128
0.000425501
0.000921664
0.000639848
0.000307829
0.000899534
-0.00036429
0.00116489
-0.0011086
0.00144366
-0.00192538
0.00171067
-0.00279513
0.0019365
-0.00361839
0.00209695
-0.00426604
0.00218633
-0.00464423
0.0022074
-0.00472554
0.00216903
-0.0045378
0.00208485
-0.0041395
0.00197005
-0.00360225
0.00183027
-0.00300011
0.00167782
-0.00239213
0.00152978
-0.00182228
0.00140103
-0.00132065
0.00129996
-0.000900495
0.00122779
-0.000559567
0.00117947
-0.000282476
0.00114732
-4.95351e-05
0.00112552
0.000154287
0.00111002
0.000339806
0.00109801
0.000516454
0.00108881
0.000690758
0.00108418
0.00086647
0.00108908
0.00104428
0.00111584
0.00122215
0.00118675
0.00138547
0.00136925
0.00150965
0.00172541
0.00135996
0.0018587
0.00116921
0.00053094
0.00283249
0.0077172
0.0040332
0.00624743
0.0036698
0.00735664
0.00254407
0.00545898
0.00189056
0.00388935
0.00153395
0.00269091
0.00138923
0.001706
0.00142333
0.000887561
0.00159824
0.000132921
0.00185085
-0.000616898
0.00212848
-0.00138624
0.00240845
-0.00220535
0.00265334
-0.00304001
0.00282146
-0.0037865
0.00288591
-0.00433049
0.00284365
-0.00460196
0.00270865
-0.00459053
0.00250328
-0.00433242
0.00225181
-0.00388803
0.00197698
-0.00332743
0.00169596
-0.00271909
0.00142613
-0.0021223
0.00118571
-0.00158186
0.000989766
-0.0011247
0.000845052
-0.000755781
0.000750418
-0.000464933
0.000696628
-0.000228686
0.000672171
-2.50783e-05
0.000667514
0.000158945
0.000675035
0.000332285
0.000689194
0.000502296
0.000706419
0.000673533
0.000723679
0.000849209
0.000737103
0.00103086
0.00073983
0.00121942
0.000713793
0.00141151
0.000603567
0.00161988
1.2386e-05
0.00195115
-0.00169777
0.00287932
-0.00299783
0.00413243
0.00482355
0.00241068
0.00400128
0.00330636
0.00646096
0.00325023
0.00551511
0.00303928
0.0041003
0.00284833
0.00288186
0.00272533
0.001829
0.00271186
0.000901039
0.00280145
4.33342e-05
0.0029641
-0.000779546
0.00317527
-0.00159741
0.00339299
-0.00242307
0.00355711
-0.00320413
0.00361288
-0.00384226
0.00353376
-0.00425136
0.0033254
-0.00439358
0.0030141
-0.00427922
0.00263427
-0.00395258
0.00221927
-0.00347302
0.00179865
-0.00290681
0.00139607
-0.00231651
0.0010334
-0.00175963
0.000730942
-0.00127941
0.000503158
-0.000896919
0.000349617
-0.000602241
0.000261372
-0.000376687
0.000221383
-0.000188697
0.000214576
-1.82715e-05
0.000229525
0.000143996
0.000257955
0.000303855
0.000294367
0.000465884
0.000334482
0.000633419
0.000372349
0.000811342
0.000398433
0.00100478
0.000392876
0.00122498
0.000311988
0.00149239
6.44337e-05
0.00186745
-0.00065866
0.0026745
-0.00191717
0.00413801
-0.00233159
0.00454688
0.00260874
0.00145719
0.00273836
0.00274862
0.00516953
0.00343259
0.00483115
0.00371874
0.00381415
0.00381753
0.00278308
0.00384621
0.00180032
0.0038833
0.000863953
0.00395354
-2.69055e-05
0.00406438
-0.000890379
0.00420501
-0.00173804
0.00432394
-0.00254201
0.00435044
-0.00323063
0.00423299
-0.0037248
0.00395957
-0.00397793
0.0035528
-0.0039868
0.00305255
-0.00377896
0.0025026
-0.00340262
0.00194151
-0.00291192
0.00140329
-0.00236858
0.000914762
-0.00182798
0.000503427
-0.00134829
0.000189343
-0.000965326
-2.04967e-05
-0.000687079
-0.000141852
-0.000480886
-0.000199998
-0.00031854
-0.000217146
-0.000171548
-0.000206782
-2.86352e-05
-0.000177525
0.00011474
-0.000134808
0.000261139
-8.19952e-05
0.000413072
-2.18798e-05
0.000573303
4.11109e-05
0.000748352
9.83283e-05
0.000947558
0.000131904
0.0011914
0.000103021
0.00152127
-5.44732e-05
0.00202495
-0.000326928
0.00294727
-0.000784708
0.00459626
-0.00103655
0.00479909
0.00170142
0.00217121
0.000793136
0.00294104
0.0043997
0.00359162
0.00418057
0.00416239
0.00324338
0.00449074
0.00245473
0.00466592
0.00162513
0.00478391
0.000745968
0.00489001
-0.000133008
0.00499751
-0.000997887
0.0050762
-0.00181674
0.00506055
-0.00252637
0.00489056
-0.00306064
0.00454392
-0.00337817
0.00403972
-0.00347372
0.00342292
-0.00336998
0.00274417
-0.0031002
0.00205165
-0.0027101
0.00138301
-0.00224328
0.000776844
-0.00176241
0.000259782
-0.00131092
-0.000128549
-0.000959962
-0.000381521
-0.000712356
-0.000525515
-0.000543087
-0.000597425
-0.000408977
-0.000625878
-0.000290087
-0.000624772
-0.000172653
-0.000602424
-5.09816e-05
-0.00056427
7.65864e-05
-0.000513074
0.000209944
-0.000450021
0.000350019
-0.000375841
0.000499124
-0.000290509
0.00066302
-0.000195873
0.000852922
-9.89845e-05
0.00109451
-2.22471e-05
0.00144451
1.07349e-05
0.0019919
0.000145491
0.00281255
0.000565433
0.00417667
0.00082786
0.00453701
0.00266469
-0.00158225
0.00262049
0.00111484
0.00170262
0.00334763
0.00194779
0.00435059
0.00224041
0.00485509
0.00195024
0.00517078
0.00130944
0.00540038
0.000516373
0.00557962
-0.000312261
0.00567962
-0.0010979
0.00563845
-0.00177561
0.00540553
-0.00229348
0.00496938
-0.0026245
0.00435814
-0.00276693
0.00362476
-0.00274034
0.00282908
-0.0025743
0.00202063
-0.00229175
0.00124675
-0.00193621
0.000537546
-0.00153408
-5.89378e-05
-0.00116593
-0.000497664
-0.000872197
-0.00077299
-0.000684643
-0.000930407
-0.000554946
-0.00101575
-0.000457744
-0.00105389
-0.000370845
-0.00106059
-0.000283381
-0.00104418
-0.000189057
-0.00101048
-8.46814e-05
-0.00096456
3.06708e-05
-0.000908518
0.000153904
-0.000841766
0.000283268
-0.000763574
0.000420933
-0.000671592
0.000571039
-0.000563482
0.000744813
-0.000442364
0.000973372
-0.000320381
0.00132244
-0.000166829
0.00183811
0.000196666
0.00244877
0.00104222
0.00333108
0.00155112
0.00402814
0.00435969
0.0028822
0.00456963
0.00486955
0.00164786
0.00535587
0.0017541
0.00559251
0.0017136
0.0058246
0.00107734
0.00601265
0.000328325
0.00607888
-0.000378526
0.00595242
-0.000971498
0.00560049
-0.00142372
0.00503613
-0.00172916
0.00430661
-0.001895
0.00347042
-0.00193076
0.00258596
-0.00185588
0.00170724
-0.00169559
0.000866352
-0.00145086
0.00010344
-0.0011733
-0.000522417
-0.000908224
-0.000967574
-0.00072078
-0.00124626
-0.000593524
-0.00141574
-0.000515177
-0.00151272
-0.000457986
-0.00156357
-0.000406899
-0.00158122
-0.000353192
-0.00157264
-0.000291946
-0.00154247
-0.000219216
-0.00149575
-0.000131389
-0.00143911
-2.59572e-05
-0.00137827
9.30674e-05
-0.00131496
0.000219956
-0.00124962
0.000355592
-0.00118347
0.000504898
-0.00111869
0.000680056
-0.00105555
0.000910244
-0.000978515
0.00124532
-0.000827682
0.00168696
-0.000431427
0.00205194
0.000632938
0.00226618
0.00122252
0.00343805
0.00573606
0.00793378
0.00536268
0.00581402
0.00387387
0.00556535
0.0019623
0.00563676
0.00100596
0.0056003
0.000364788
0.005355
-0.000133251
0.00489058
-0.000507123
0.00424849
-0.000781661
0.00348295
-0.000963641
0.00264698
-0.00105905
0.00178196
-0.00106574
0.000924149
-0.000998071
0.000106738
-0.000878177
-0.000614089
-0.000730031
-0.00118156
-0.00060584
-0.00158199
-0.000507813
-0.0018515
-0.000451298
-0.00202372
-0.000421338
-0.0021353
-0.00040363
-0.00220622
-0.00038709
-0.00224617
-0.000366947
-0.00225903
-0.000340317
-0.00224656
-0.000304377
-0.00221031
-0.00025541
-0.00215309
-0.000188571
-0.00208074
-9.82859e-05
-0.00200671
1.90357e-05
-0.00194111
0.000154341
-0.00188629
0.000300753
-0.00184841
0.000467034
-0.00183479
0.000666511
-0.00184892
0.000924536
-0.00187387
0.00127043
-0.00189105
0.00170414
-0.00195601
0.00211658
-0.00209
0.00239957
-0.00182015
0.0031675
0.00408504
0.00411314
0.0014961
0.00451391
0.00347312
0.00374101
0.00273524
0.00323562
0.00151136
0.00288757
0.000712807
0.00251875
0.000235539
0.00207025
-5.86418e-05
0.00153189
-0.000243305
0.000922896
-0.000354638
0.000260524
-0.000396667
-0.0004186
-0.000386608
-0.00105867
-0.000357994
-0.00161148
-0.000325359
-0.00204608
-0.00029544
-0.00236868
-0.000283264
-0.00259368
-0.000282859
-0.00275401
-0.000291035
-0.00287396
-0.000301449
-0.00296693
-0.000310713
-0.00303707
-0.000316966
-0.00308464
-0.000319358
-0.00310816
-0.000316737
-0.00310554
-0.000306903
-0.00307498
-0.000285859
-0.0030161
-0.000247355
-0.00293119
-0.00018315
-0.00282768
-8.44966e-05
-0.00272526
5.18466e-05
-0.00263956
0.000214964
-0.00257085
0.00039825
-0.00251541
0.000611101
-0.0024701
0.000879413
-0.0024235
0.00122418
-0.00238
0.00166103
-0.00255412
0.00229104
-0.00339873
0.00324442
-0.00363527
0.00340411
0.000632482
-0.00259463
-0.00675683
-0.00741265
-0.00745999
-0.00374905
-0.00216756
-0.00167014
0.00139419
-0.00075719
0.00182228
-0.000560376
0.00131453
-0.000642002
0.000794424
-0.000827654
0.000421193
-0.00106533
0.000179035
-0.0013488
4.01909e-05
-0.00168035
-2.30535e-05
-0.00203722
-3.97608e-05
-0.00239069
-3.31112e-05
-0.00271949
-2.91878e-05
-0.00299874
-4.61126e-05
-0.00321213
-8.20883e-05
-0.00337334
-0.000122132
-0.00350279
-0.000153494
-0.0036176
-0.000176329
-0.00372405
-0.000195079
-0.00382163
-0.000213172
-0.00390664
-0.000231943
-0.00397425
-0.00025168
-0.00401898
-0.000271874
-0.00403533
-0.000290375
-0.00401903
-0.000301973
-0.00396852
-0.000297703
-0.00388555
-0.000266036
-0.00377428
-0.000195789
-0.0036432
-7.93981e-05
-0.00350943
8.09711e-05
-0.00337165
0.000260237
-0.00320701
0.000446304
-0.0029907
0.00066309
-0.00269061
0.000924259
-0.00225103
0.0012218
-0.00154726
0.00158767
-0.000458861
0.0021564
0.000375409
0.00257016
0.00119103
-0.00734396
0.00104069
-0.0081183
-0.0066857
-0.00717261
-0.00311331
-0.00565268
-0.000125777
-0.00456033
0.000729922
-0.00396967
0.00072388
-0.00371181
0.00053658
-0.00364608
0.000355514
-0.00368786
0.000220865
-0.00378027
0.00013266
-0.00388158
7.83167e-05
-0.00396775
4.64559e-05
-0.0040291
2.82722e-05
-0.00407229
1.40028e-05
-0.00411247
-5.97565e-06
-0.00416147
-3.31814e-05
-0.004223
-6.07127e-05
-0.00429379
-8.2823e-05
-0.00436978
-0.000100441
-0.00444746
-0.000117466
-0.00452383
-0.000136804
-0.00459621
-0.000159501
-0.00466213
-0.00018562
-0.00471929
-0.000214506
-0.00476548
-0.000243928
-0.00479842
-0.00026878
-0.00481513
-0.00028077
-0.00481092
-0.000270122
-0.00477811
-0.000228617
-0.00470617
-0.000151528
-0.00458592
-3.964e-05
-0.00441328
8.71831e-05
-0.00417268
0.000205326
-0.0038251
0.000315234
-0.00332847
0.000427493
-0.00261525
0.000508613
-0.00146053
0.0004331
0.000515014
0.000181067
0.00192168
0.00116376
0.00329608
0.00158247
-0.00503847
-0.00808842
-0.00815452
-0.00736995
-0.00659917
-0.00602233
-0.00563134
-0.00537809
-0.00521481
-0.0051066
-0.00503017
-0.00497133
-0.00492604
-0.00490018
-0.00490123
-0.00492965
-0.00498008
-0.00504808
-0.00513313
-0.00523767
-0.00536524
-0.00551948
-0.00570341
-0.00591781
-0.00615831
-0.00641213
-0.0066566
-0.00686068
-0.00698853
-0.0070051
-0.00689525
-0.00666757
-0.00633032
-0.00588136
-0.00535207
-0.00489932
-0.00469976
-0.00351868
)
;

boundaryField
{
    floor
    {
        type            calculated;
        value           nonuniform List<scalar> 
36
(
0
0
0
0
0
0
0
0
0
0
0
0
0
0
0
0
0
0
0
-6.43882e-06
-1.68818e-05
-2.60245e-05
-3.42882e-05
-3.49018e-05
-2.87177e-05
-2.85722e-05
-2.92037e-06
-5.44165e-06
-5.68796e-06
-5.90797e-06
-4.85468e-06
-8.93873e-06
-1.02091e-05
-1.28316e-05
-1.44565e-05
-1.54458e-05
)
;
    }
    ceiling
    {
        type            calculated;
        value           nonuniform List<scalar> 
43
(
-5.78534e-05
-6.48088e-05
-6.34187e-05
-5.9702e-05
-5.46473e-05
-4.68777e-05
-4.01953e-05
-3.53941e-05
-3.22842e-05
-3.05214e-05
-2.98116e-05
-2.99181e-05
-3.05506e-05
-3.13205e-05
-3.18976e-05
-3.22232e-05
-3.23969e-05
-3.24899e-05
-3.25132e-05
-3.24403e-05
-3.22288e-05
-3.18333e-05
-3.12161e-05
-3.03597e-05
-2.92826e-05
-2.80518e-05
-2.67815e-05
-2.56045e-05
-2.46278e-05
-2.38971e-05
-2.33931e-05
-2.30415e-05
-2.27204e-05
-2.22932e-05
-2.16585e-05
-2.07677e-05
-1.96492e-05
-1.84112e-05
-1.718e-05
-1.63546e-05
1.9331e-05
1.51847e-05
-0.000246558
)
;
    }
    sWall
    {
        type            calculated;
        value           nonuniform List<scalar> 9(-0.000140237 -0.000164531 -0.000194273 -0.000225986 -0.000245106 -0.000281043 -0.000423527 -0.00045363 -0.000483944);
    }
    nWall
    {
        type            calculated;
        value           nonuniform List<scalar> 
14
(
-9.00342e-05
-9.72567e-05
-0.00010268
-0.000104204
-0.000116803
-0.000129119
-0.000135228
-0.000143997
-0.000154384
-0.000169671
-0.000182897
-0.000182662
-0.000183195
-0.000206075
)
;
    }
    sideWalls
    {
        type            empty;
        value           nonuniform 0();
    }
    glass1
    {
        type            calculated;
        value           nonuniform List<scalar> 9(-6.40339e-05 -0.00017032 -0.00025792 -0.000331202 -0.000393183 -0.000446386 -0.000492196 -0.000535476 -0.000587162);
    }
    glass2
    {
        type            calculated;
        value           nonuniform List<scalar> 2(-0.000367146 -0.00038416);
    }
    sun
    {
        type            calculated;
        value           uniform 0;
    }
    Table_master
    {
        type            calculated;
        value           nonuniform List<scalar> 9(-1.53991e-07 -1.54108e-07 -1.5414e-07 -1.5416e-07 -1.54173e-07 -1.54178e-07 -1.54177e-07 -1.54162e-07 -1.54109e-07);
    }
    Table_slave
    {
        type            calculated;
        value           nonuniform List<scalar> 9(1.53661e-07 1.53717e-07 1.53716e-07 1.53732e-07 1.53753e-07 1.53797e-07 1.53863e-07 1.53957e-07 1.54084e-07);
    }
    inlet
    {
        type            calculated;
        value           uniform -0.0116486;
    }
    outlet
    {
        type            calculated;
        value           nonuniform List<scalar> 2(0.00977493 0.0122779);
    }
}


// ************************************************************************* //
