/*--------------------------------*- C++ -*----------------------------------*\
  =========                 |
  \\      /  F ield         | OpenFOAM: The Open Source CFD Toolbox
   \\    /   O peration     | Website:  https://openfoam.org
    \\  /    A nd           | Version:  6
     \\/     M anipulation  |
\*---------------------------------------------------------------------------*/
FoamFile
{
    version     2.0;
    format      ascii;
    class       volVectorField;
    location    "18700";
    object      U;
}
// * * * * * * * * * * * * * * * * * * * * * * * * * * * * * * * * * * * * * //

dimensions      [0 1 -1 0 0 0 0];

internalField   nonuniform List<vector> 
778
(
(0.0656004 0.0794081 0)
(-0.155174 0.0157675 0)
(-0.164305 0.0146284 0)
(-0.192428 0.0122783 0)
(-0.21687 0.00872686 0)
(-0.236935 0.00474372 0)
(-0.252064 0.000414004 0)
(-0.261832 -0.00437435 0)
(-0.265724 -0.00981941 0)
(-0.26274 -0.0162012 0)
(-0.250926 -0.0242753 0)
(-0.226216 -0.0348929 0)
(-0.18609 -0.050411 0)
(-0.144164 -0.0751762 0)
(-0.150074 -0.10856 0)
(0.0546469 0.0354286 0)
(0.0157475 -0.0268488 0)
(0.0449102 -0.0232397 0)
(0.0692749 -0.0161371 0)
(0.0842967 -0.0103354 0)
(0.0914804 -0.00641047 0)
(0.0943104 -0.00433925 0)
(0.0953519 -0.00331653 0)
(0.0958121 -0.00272783 0)
(0.0959835 -0.00231367 0)
(0.095856 -0.00194912 0)
(0.095327 -0.00150962 0)
(0.0940692 -0.00075755 0)
(0.0912257 0.000843932 0)
(0.0850293 0.00406278 0)
(0.0735069 0.00775976 0)
(0.0598892 0.0115888 0)
(-0.00800225 0.0299632 0)
(0.2584 0.167392 0)
(-0.161233 0.0483948 0)
(-0.141606 0.0459881 0)
(-0.174016 0.041624 0)
(-0.199386 0.0356761 0)
(-0.220113 0.0291344 0)
(-0.236146 0.0220585 0)
(-0.247398 0.0142228 0)
(-0.25357 0.00528487 0)
(-0.25388 -0.00516931 0)
(-0.247716 -0.0171011 0)
(-0.234002 -0.0308664 0)
(-0.21409 -0.0480857 0)
(-0.197511 -0.0699621 0)
(-0.193989 -0.0826435 0)
(-0.166369 -0.0425769 0)
(-0.105314 -0.0363984 0)
(-0.0983341 -0.0444757 0)
(0.109344 -0.0420584 0)
(0.0644748 -0.0411151 0)
(0.0718852 -0.0322105 0)
(0.0858259 -0.0206547 0)
(0.0936835 -0.0104124 0)
(0.09589 -0.00362524 0)
(0.0956435 -0.000204722 0)
(0.0952587 0.00124 0)
(0.0952259 0.00189378 0)
(0.0953086 0.00227186 0)
(0.0953164 0.0025945 0)
(0.0952161 0.00313431 0)
(0.0949247 0.0044113 0)
(0.0936677 0.00772132 0)
(0.0880708 0.0167465 0)
(0.074319 0.0253051 0)
(0.0630312 0.0328824 0)
(-0.0521428 0.0635165 0)
(0.429982 0.253953 0)
(-0.19423 0.0847635 0)
(-0.112779 0.0784443 0)
(-0.14825 0.0669699 0)
(-0.170687 0.055513 0)
(-0.188787 0.0437358 0)
(-0.202627 0.0313454 0)
(-0.212319 0.0179998 0)
(-0.217668 0.00338215 0)
(-0.218019 -0.0126558 0)
(-0.212755 -0.0303512 0)
(-0.201642 -0.0499337 0)
(-0.185998 -0.0715867 0)
(-0.169462 -0.0932207 0)
(-0.151094 -0.104566 0)
(-0.12026 -0.0931465 0)
(-0.0795772 -0.0949451 0)
(-0.0715367 -0.107575 0)
(0.0920811 -0.0881511 0)
(0.0625398 -0.0656937 0)
(0.07433 -0.04604 0)
(0.0879392 -0.0291413 0)
(0.0947401 -0.0147897 0)
(0.0917965 -0.0119456 0)
(0.0875683 -0.00793633 0)
(0.085204 -0.00579193 0)
(0.0845022 -0.00457131 0)
(0.0844727 -0.00380386 0)
(0.0847296 -0.00322693 0)
(0.0853852 -0.00259844 0)
(0.0871479 -0.00144032 0)
(0.0918304 0.00291587 0)
(0.0899708 0.0251005 0)
(0.0731419 0.0423176 0)
(0.0699634 0.0573377 0)
(-0.0903675 0.100758 0)
(0.578554 0.325838 0)
(-0.240101 0.121814 0)
(-0.0808325 0.109238 0)
(-0.121577 0.0898724 0)
(-0.139015 0.0740877 0)
(-0.153081 0.0586493 0)
(-0.163845 0.0427573 0)
(-0.171442 0.0258013 0)
(-0.175652 0.00717691 0)
(-0.175712 -0.0135623 0)
(-0.171016 -0.0365041 0)
(-0.161442 -0.0614832 0)
(-0.147573 -0.0873847 0)
(-0.130599 -0.110296 0)
(-0.109647 -0.123188 0)
(-0.0821788 -0.124527 0)
(-0.0525758 -0.126355 0)
(-0.0334412 -0.123141 0)
(0.0162632 -0.0567899 0)
(0.0607591 -0.0930211 0)
(0.068405 -0.0791239 0)
(0.0790261 -0.0587256 0)
(0.0915213 -0.0394619 0)
(0.10287 -0.0207924 0)
(0.115611 -0.0131121 0)
(0.126722 -0.00876582 0)
(0.132282 -0.00558251 0)
(0.133246 -0.0030911 0)
(0.130717 -0.000874905 0)
(0.125253 0.00129274 0)
(0.116721 0.00367654 0)
(0.10435 0.00673669 0)
(0.0850693 0.0111726 0)
(0.0711892 0.0368635 0)
(0.0598626 0.0605347 0)
(0.0760569 0.0831867 0)
(-0.118474 0.136784 0)
(0.705742 0.383676 0)
(-0.28768 0.157008 0)
(-0.0476917 0.133799 0)
(-0.0962924 0.106942 0)
(-0.107746 0.0876215 0)
(-0.116785 0.0691963 0)
(-0.123581 0.0504608 0)
(-0.128246 0.0305861 0)
(-0.130608 0.00870459 0)
(-0.129799 -0.0158545 0)
(-0.125292 -0.043117 0)
(-0.11666 -0.0727138 0)
(-0.103934 -0.102832 0)
(-0.0874604 -0.129066 0)
(-0.0675085 -0.145751 0)
(-0.04417 -0.152227 0)
(-0.0203117 -0.152337 0)
(0.000222686 -0.143693 0)
(0.0307474 -0.114972 0)
(0.0569083 -0.109323 0)
(0.070478 -0.092368 0)
(0.0806127 -0.0711617 0)
(0.0906725 -0.050686 0)
(0.100228 -0.0326457 0)
(0.109323 -0.0193021 0)
(0.116321 -0.00995435 0)
(0.11972 -0.00327902 0)
(0.1199 0.00195856 0)
(0.117478 0.00649167 0)
(0.112822 0.0108371 0)
(0.105953 0.0155091 0)
(0.0967964 0.0212106 0)
(0.0848392 0.0292378 0)
(0.0732273 0.0472796 0)
(0.0626129 0.0713144 0)
(0.0941736 0.0993006 0)
(0.0158071 0.13795 0)
(0.0952106 0.183061 0)
(0.14128 0.144406 0)
(-0.220864 0.202546 0)
(0.810462 0.431967 0)
(-0.331325 0.190675 0)
(-0.0173047 0.150267 0)
(-0.0733662 0.117549 0)
(-0.0785924 0.0955463 0)
(-0.0822215 0.0749783 0)
(-0.0844852 0.0543664 0)
(-0.085532 0.0327272 0)
(-0.0852844 0.00884823 0)
(-0.0826138 -0.0184411 0)
(-0.0774437 -0.0490631 0)
(-0.0688085 -0.0825282 0)
(-0.0568003 -0.116505 0)
(-0.0417275 -0.146278 0)
(-0.0247155 -0.16596 0)
(-0.00631573 -0.174455 0)
(0.0120792 -0.172706 0)
(0.0279894 -0.160964 0)
(0.0461423 -0.139281 0)
(0.0625744 -0.122294 0)
(0.0732268 -0.102419 0)
(0.0808898 -0.0803384 0)
(0.0876332 -0.0589738 0)
(0.0937984 -0.0400938 0)
(0.0991096 -0.0249376 0)
(0.102774 -0.0136102 0)
(0.104357 -0.00494954 0)
(0.103914 0.00221148 0)
(0.101758 0.008652 0)
(0.0981325 0.0148967 0)
(0.0931903 0.0214806 0)
(0.0871504 0.0290446 0)
(0.0802533 0.0385076 0)
(0.0744139 0.0530166 0)
(0.0689628 0.0730838 0)
(0.0908426 0.0987642 0)
(0.0721915 0.107198 0)
(0.0887066 0.0470374 0)
(0.146424 -0.0380823 0)
(-0.329946 0.107757 0)
(0.879956 0.474675 0)
(-0.368653 0.220955 0)
(0.00374325 0.155578 0)
(-0.0526571 0.121604 0)
(-0.0522042 0.0978949 0)
(-0.0510336 0.0758659 0)
(-0.0490419 0.0540808 0)
(-0.0465387 0.031556 0)
(-0.0433677 0.0067738 0)
(-0.0374209 -0.022318 0)
(-0.0303513 -0.0554004 0)
(-0.0205629 -0.0919676 0)
(-0.00873716 -0.128901 0)
(0.00450413 -0.161223 0)
(0.017608 -0.181858 0)
(0.0304267 -0.19018 0)
(0.0422513 -0.187181 0)
(0.0525556 -0.17436 0)
(0.0625094 -0.153994 0)
(0.0710602 -0.132323 0)
(0.0765562 -0.109279 0)
(0.0799869 -0.0857476 0)
(0.0825538 -0.0635452 0)
(0.0847569 -0.044035 0)
(0.0865531 -0.0279473 0)
(0.087611 -0.0151846 0)
(0.0877153 -0.00496222 0)
(0.086721 0.00364589 0)
(0.084825 0.0113285 0)
(0.0821723 0.018619 0)
(0.0789336 0.0260325 0)
(0.0753754 0.0340899 0)
(0.0718729 0.0433691 0)
(0.0697523 0.0551795 0)
(0.0682899 0.0698899 0)
(0.080888 0.08912 0)
(0.083168 0.0921581 0)
(0.0878187 0.0534626 0)
(0.181491 0.0233045 0)
(-0.283728 0.154646 0)
(0.928022 0.517125 0)
(-0.383186 0.234159 0)
(0.0169342 0.132999 0)
(-0.0273176 0.116697 0)
(-0.0265426 0.0949739 0)
(-0.0227467 0.0724847 0)
(-0.0176517 0.0501552 0)
(-0.0123949 0.0272884 0)
(-0.00547429 0.00189638 0)
(0.00450292 -0.0307488 0)
(0.0142095 -0.0653571 0)
(0.0255116 -0.103368 0)
(0.0371761 -0.140885 0)
(0.0478923 -0.172149 0)
(0.0570302 -0.192327 0)
(0.0645589 -0.199792 0)
(0.0703015 -0.195347 0)
(0.0742582 -0.181126 0)
(0.0769428 -0.160015 0)
(0.0782758 -0.135992 0)
(0.0778802 -0.110946 0)
(0.076334 -0.0863844 0)
(0.0744672 -0.0637894 0)
(0.072804 -0.0441719 0)
(0.0714835 -0.0279202 0)
(0.0703769 -0.0147554 0)
(0.0692987 -0.00397607 0)
(0.0679621 0.00520267 0)
(0.0664934 0.0133704 0)
(0.0648657 0.0210283 0)
(0.0631598 0.028625 0)
(0.0615548 0.036546 0)
(0.060327 0.0451278 0)
(0.0602824 0.0548985 0)
(0.0611177 0.0658677 0)
(0.0692683 0.0795688 0)
(0.0775781 0.082878 0)
(0.0752664 0.060355 0)
(0.240272 0.0493068 0)
(-0.553267 0.230233 0)
(1.01137 0.506781 0)
(-0.137291 0.296315 0)
(0.0410951 0.16151 0)
(0.0405962 0.122107 0)
(0.0130826 0.0920177 0)
(0.00866437 0.0654224 0)
(0.0140742 0.0414489 0)
(0.0206803 0.0170274 0)
(0.0324624 -0.0109935 0)
(0.0439092 -0.0421486 0)
(0.0557672 -0.0769387 0)
(0.0680477 -0.114689 0)
(0.0792097 -0.151161 0)
(0.0877511 -0.180617 0)
(0.0930167 -0.198624 0)
(0.0951059 -0.203761 0)
(0.09442 -0.197078 0)
(0.091504 -0.180999 0)
(0.0870361 -0.15857 0)
(0.0814701 -0.133105 0)
(0.0751019 -0.107032 0)
(0.0685304 -0.082176 0)
(0.0624762 -0.0599037 0)
(0.0574583 -0.0409531 0)
(0.0536707 -0.0254267 0)
(0.0510222 -0.0128374 0)
(0.0492574 -0.00240817 0)
(0.0479815 0.0065624 0)
(0.047187 0.0145852 0)
(0.0466499 0.0221201 0)
(0.0463274 0.0295315 0)
(0.0462739 0.0370852 0)
(0.0466145 0.0449689 0)
(0.0477424 0.0533931 0)
(0.049449 0.0622513 0)
(0.0545346 0.0722142 0)
(0.0608697 0.0735124 0)
(0.048099 0.0460038 0)
(0.292127 0.069183 0)
(-0.791441 0.301614 0)
(0.779371 0.395677 0)
(0.000748195 0.319457 0)
(0.0933686 0.218886 0)
(0.11059 0.155155 0)
(0.0771525 0.106826 0)
(0.0597797 0.0675713 0)
(0.0581963 0.0358019 0)
(0.0623515 0.00645538 0)
(0.073756 -0.0234036 0)
(0.0853106 -0.0550392 0)
(0.0974961 -0.089791 0)
(0.109366 -0.12634 0)
(0.118764 -0.160149 0)
(0.123907 -0.185867 0)
(0.124184 -0.19992 0)
(0.120011 -0.201474 0)
(0.112332 -0.191904 0)
(0.102217 -0.173765 0)
(0.0907075 -0.150089 0)
(0.0786454 -0.123906 0)
(0.0667208 -0.0977481 0)
(0.055661 -0.0735315 0)
(0.0461886 -0.0525212 0)
(0.0387736 -0.0351763 0)
(0.0335259 -0.0213105 0)
(0.0302281 -0.0101608 0)
(0.0284378 -0.000814588 0)
(0.0276992 0.00736511 0)
(0.027756 0.0148347 0)
(0.0282783 0.0219825 0)
(0.029143 0.029066 0)
(0.0303037 0.036253 0)
(0.031738 0.0436661 0)
(0.0334833 0.051459 0)
(0.0349656 0.0597644 0)
(0.0360428 0.0695485 0)
(0.0250083 0.0770371 0)
(0.0132939 0.0968549 0)
(0.0782021 0.164921 0)
(-0.665598 0.285666 0)
(0.617295 0.220811 0)
(0.00457729 0.298085 0)
(0.113011 0.24151 0)
(0.148288 0.177518 0)
(0.130855 0.123485 0)
(0.117834 0.0778332 0)
(0.114965 0.0389107 0)
(0.117117 0.00342986 0)
(0.123459 -0.0306828 0)
(0.131666 -0.0649954 0)
(0.141344 -0.100537 0)
(0.15023 -0.135468 0)
(0.155384 -0.165389 0)
(0.154872 -0.185944 0)
(0.148369 -0.19482 0)
(0.136769 -0.192045 0)
(0.121534 -0.179375 0)
(0.104169 -0.159391 0)
(0.0860446 -0.135007 0)
(0.0682651 -0.109003 0)
(0.051774 -0.0838525 0)
(0.0374286 -0.0614153 0)
(0.0259685 -0.0428099 0)
(0.0176742 -0.0281088 0)
(0.0123589 -0.0167609 0)
(0.0094174 -0.00763964 0)
(0.00814184 0.00022246 0)
(0.00819648 0.00735492 0)
(0.00903877 0.0141299 0)
(0.0104239 0.0208087 0)
(0.0122148 0.0275396 0)
(0.0143135 0.0344254 0)
(0.0166159 0.0415802 0)
(0.0190523 0.0492403 0)
(0.0213411 0.0580137 0)
(0.0232277 0.0703011 0)
(0.00999601 0.0908301 0)
(-0.00874115 0.132476 0)
(0.187071 0.178423 0)
(-0.565443 0.200088 0)
(0.570775 0.118483 0)
(-0.0203806 0.258593 0)
(0.113711 0.229841 0)
(0.165066 0.176012 0)
(0.16674 0.126156 0)
(0.164404 0.0811021 0)
(0.165381 0.0400066 0)
(0.168264 0.00168311 0)
(0.172201 -0.0353343 0)
(0.177751 -0.0718806 0)
(0.183909 -0.107605 0)
(0.187605 -0.139728 0)
(0.185817 -0.164348 0)
(0.177162 -0.178627 0)
(0.16208 -0.181763 0)
(0.14211 -0.174654 0)
(0.119192 -0.159349 0)
(0.0950824 -0.138295 0)
(0.0713802 -0.114212 0)
(0.0493037 -0.0895815 0)
(0.0300137 -0.0667828 0)
(0.0144643 -0.0475354 0)
(0.00326332 -0.0326462 0)
(-0.00398875 -0.0213622 0)
(-0.0079497 -0.0129958 0)
(-0.00992156 -0.00594881 0)
(-0.0105009 0.000464085 0)
(-0.00993478 0.00658437 0)
(-0.00861473 0.012654 0)
(-0.00668276 0.0188155 0)
(-0.0042745 0.025157 0)
(-0.00153154 0.0317605 0)
(0.00140813 0.0387953 0)
(0.00445771 0.0464162 0)
(0.00775993 0.0554475 0)
(0.0102204 0.0706368 0)
(-0.00310697 0.100273 0)
(-0.0228269 0.136193 0)
(0.221635 0.180504 0)
(-0.496703 0.195779 0)
(0.628359 0.0537989 0)
(0.00905903 0.197292 0)
(0.113811 0.196884 0)
(0.175151 0.157867 0)
(0.191428 0.117651 0)
(0.198096 0.0772801 0)
(0.203415 0.037325 0)
(0.208587 -0.00142409 0)
(0.213044 -0.0395702 0)
(0.217317 -0.0764728 0)
(0.219116 -0.109964 0)
(0.215277 -0.13686 0)
(0.203904 -0.154528 0)
(0.18508 -0.161953 0)
(0.160422 -0.159694 0)
(0.132102 -0.149165 0)
(0.102381 -0.132458 0)
(0.0729773 -0.111672 0)
(0.0456815 -0.0893345 0)
(0.0216472 -0.0675952 0)
(0.00243028 -0.0487857 0)
(-0.0111914 -0.0343811 0)
(-0.0193022 -0.0245107 0)
(-0.024062 -0.0170035 0)
(-0.0266503 -0.0107775 0)
(-0.0278709 -0.00514401 0)
(-0.0280138 0.000202013 0)
(-0.027218 0.00546898 0)
(-0.0256428 0.0108376 0)
(-0.0233874 0.0164401 0)
(-0.0206108 0.0223836 0)
(-0.0175467 0.0287865 0)
(-0.0145349 0.0358339 0)
(-0.0118869 0.0438454 0)
(-0.0100385 0.0544697 0)
(-0.0140237 0.0756869 0)
(-0.032636 0.107588 0)
(-0.0326479 0.13043 0)
(0.133585 0.179422 0)
(-0.518911 0.217557 0)
(0.473078 0.0748514 0)
(-0.132224 0.13751 0)
(0.0942696 0.133163 0)
(0.172785 0.11668 0)
(0.203922 0.0952748 0)
(0.218219 0.0643966 0)
(0.228179 0.0284604 0)
(0.237195 -0.008834 0)
(0.24352 -0.0451765 0)
(0.244988 -0.0781701 0)
(0.23898 -0.105128 0)
(0.224131 -0.123955 0)
(0.200951 -0.133764 0)
(0.171355 -0.134994 0)
(0.137941 -0.128908 0)
(0.103025 -0.116791 0)
(0.0689655 -0.100531 0)
(0.0369671 -0.0817461 0)
(0.0094565 -0.0629499 0)
(-0.0130087 -0.045926 0)
(-0.0270647 -0.0342632 0)
(-0.0357421 -0.0259798 0)
(-0.0408073 -0.0196615 0)
(-0.0438272 -0.0142438 0)
(-0.045536 -0.00934595 0)
(-0.0462772 -0.00474108 0)
(-0.0461409 -0.000291099 0)
(-0.0451582 0.00415675 0)
(-0.04338 0.00878434 0)
(-0.04086 0.0137916 0)
(-0.0377896 0.0193749 0)
(-0.0345086 0.0257797 0)
(-0.0316435 0.0334182 0)
(-0.0300309 0.0432218 0)
(-0.0305514 0.0583962 0)
(-0.0388921 0.0865464 0)
(-0.0625046 0.124944 0)
(-0.0618156 0.150961 0)
(-0.0340002 0.173229 0)
(-0.553274 0.168926 0)
(0.72423 0.134528 0)
(0.0818431 0.115272 0)
(0.149787 0.0990818 0)
(0.222481 0.0803064 0)
(0.244184 0.0698125 0)
(0.248991 0.0476724 0)
(0.255244 0.0176713 0)
(0.261305 -0.0145106 0)
(0.260282 -0.0445248 0)
(0.249751 -0.0694203 0)
(0.229453 -0.0874538 0)
(0.20095 -0.0981204 0)
(0.166614 -0.101695 0)
(0.129016 -0.0991891 0)
(0.0907072 -0.0918905 0)
(0.0531828 -0.0805007 0)
(0.0192729 -0.0667112 0)
(-0.0114549 -0.0516422 0)
(-0.033012 -0.0398689 0)
(-0.0472739 -0.0314276 0)
(-0.0558066 -0.0256013 0)
(-0.060991 -0.020867 0)
(-0.0642181 -0.0165643 0)
(-0.0662712 -0.012416 0)
(-0.0674579 -0.00844377 0)
(-0.0678744 -0.00466536 0)
(-0.0675172 -0.00102453 0)
(-0.0663234 0.00262006 0)
(-0.0643628 0.00647565 0)
(-0.0615836 0.0108304 0)
(-0.0581384 0.0160096 0)
(-0.0543107 0.0224461 0)
(-0.0506865 0.0308754 0)
(-0.0479341 0.0428032 0)
(-0.0453145 0.0616121 0)
(-0.0440607 0.093405 0)
(-0.0547491 0.140055 0)
(-0.0420961 0.184056 0)
(0.0255812 0.174242 0)
(-0.560501 0.0365976 0)
(0.19213 0.0878394 0)
(0.225903 0.0995424 0)
(0.246677 0.0700181 0)
(0.242728 0.0398919 0)
(0.239851 0.0123832 0)
(0.234858 -0.0125529 0)
(0.220143 -0.0330362 0)
(0.196399 -0.0482292 0)
(0.165929 -0.0580831 0)
(0.131182 -0.0630439 0)
(0.0939669 -0.0634037 0)
(0.0563366 -0.0599576 0)
(0.0203419 -0.0536478 0)
(-0.014595 -0.0447151 0)
(-0.0411605 -0.0364867 0)
(-0.060794 -0.0299403 0)
(-0.0735901 -0.0257564 0)
(-0.0816249 -0.0227693 0)
(-0.0867342 -0.0201434 0)
(-0.0902568 -0.0172513 0)
(-0.0927944 -0.0140909 0)
(-0.0945853 -0.0108446 0)
(-0.0956997 -0.00769888 0)
(-0.0961452 -0.00473397 0)
(-0.0958946 -0.00190644 0)
(-0.0948304 0.000937041 0)
(-0.0930317 0.00400356 0)
(-0.0902885 0.00759197 0)
(-0.0865278 0.0121165 0)
(-0.0816711 0.0181146 0)
(-0.0757826 0.0264167 0)
(-0.0688556 0.0385069 0)
(-0.0593155 0.0570972 0)
(-0.044464 0.0864028 0)
(-0.0307986 0.130399 0)
(-0.0152044 0.186915 0)
(0.141749 0.180508 0)
(-0.416301 0.0545713 0)
(0.451336 0.209269 0)
(0.20646 0.17846 0)
(0.152807 0.118649 0)
(0.139717 0.064071 0)
(0.128409 0.0260675 0)
(0.114324 0.00204966 0)
(0.0990262 -0.0126338 0)
(0.0778826 -0.0216888 0)
(0.0529203 -0.0272058 0)
(0.0253339 -0.0296046 0)
(-0.00513504 -0.028837 0)
(-0.0345825 -0.0260934 0)
(-0.0604908 -0.0228767 0)
(-0.0816605 -0.0204214 0)
(-0.0966942 -0.0196253 0)
(-0.106665 -0.0196042 0)
(-0.113122 -0.0196075 0)
(-0.117773 -0.0186998 0)
(-0.121561 -0.0167139 0)
(-0.124839 -0.0138675 0)
(-0.127633 -0.010563 0)
(-0.129875 -0.00720815 0)
(-0.131505 -0.00413515 0)
(-0.132496 -0.00154071 0)
(-0.132843 0.000541758 0)
(-0.132458 0.00224615 0)
(-0.131228 0.00383632 0)
(-0.128873 0.00568799 0)
(-0.124973 0.00818005 0)
(-0.119018 0.0118273 0)
(-0.110514 0.0174777 0)
(-0.0988399 0.0265308 0)
(-0.0823143 0.0410765 0)
(-0.0578725 0.0637437 0)
(-0.0265822 0.0971921 0)
(0.0013627 0.146044 0)
(0.178057 0.150692 0)
(-0.371867 0.110314 0)
(0.360105 -0.415159 0)
(-0.345494 -0.512094 0)
(-0.218103 -0.0279482 0)
(-0.092945 0.110751 0)
(-0.0535788 0.0925734 0)
(-0.031192 0.0547469 0)
(-0.0263284 0.0287238 0)
(-0.0313388 0.0121165 0)
(-0.040353 0.00147407 0)
(-0.0511138 -0.00538601 0)
(-0.0650888 -0.00948853 0)
(-0.0808938 -0.0117096 0)
(-0.0973409 -0.0133332 0)
(-0.112903 -0.0156909 0)
(-0.126375 -0.0186942 0)
(-0.136428 -0.0218262 0)
(-0.142726 -0.0246939 0)
(-0.146691 -0.0266665 0)
(-0.149895 -0.027701 0)
(-0.153219 -0.0279216 0)
(-0.15684 -0.0275311 0)
(-0.16062 -0.0267107 0)
(-0.164336 -0.025591 0)
(-0.167757 -0.0242148 0)
(-0.170649 -0.0225455 0)
(-0.172795 -0.0205302 0)
(-0.174049 -0.0181774 0)
(-0.174362 -0.0155819 0)
(-0.173694 -0.0128589 0)
(-0.171963 -0.0100268 0)
(-0.168656 -0.00690389 0)
(-0.162965 -0.00309797 0)
(-0.153832 0.00213979 0)
(-0.139968 0.00995396 0)
(-0.119454 0.0214594 0)
(-0.0896209 0.0370572 0)
(-0.0496444 0.0573525 0)
(-0.00659954 0.090566 0)
(0.196903 0.124087 0)
(-0.414117 0.173751 0)
(0.123169 -0.185448 0)
(-0.387854 -0.297608 0)
(-0.342984 -0.0966141 0)
(-0.264771 0.0512081 0)
(-0.211102 0.0832851 0)
(-0.17896 0.0744441 0)
(-0.16264 0.0610856 0)
(-0.156576 0.0512651 0)
(-0.156576 0.0462462 0)
(-0.159802 0.045777 0)
(-0.164366 0.0489866 0)
(-0.168696 0.0546255 0)
(-0.171911 0.0612473 0)
(-0.173849 0.0668155 0)
(-0.174925 0.068396 0)
(-0.176117 0.0644916 0)
(-0.178139 0.0591618 0)
(-0.181273 0.0554551 0)
(-0.185283 0.0542015 0)
(-0.189717 0.0549419 0)
(-0.194109 0.056912 0)
(-0.198096 0.0593844 0)
(-0.201457 0.0616823 0)
(-0.204102 0.0631907 0)
(-0.206017 0.0634514 0)
(-0.207198 0.0623053 0)
(-0.207619 0.0599477 0)
(-0.207264 0.0567713 0)
(-0.206135 0.0530344 0)
(-0.204161 0.0485553 0)
(-0.201041 0.0429748 0)
(-0.196156 0.0359322 0)
(-0.188658 0.0273312 0)
(-0.177757 0.0174193 0)
(-0.162794 0.00607687 0)
(-0.142285 -0.00805818 0)
(-0.111922 -0.0240082 0)
(-0.061741 -0.0254513 0)
(0.200502 0.0615228 0)
(-0.49556 0.231398 0)
(1.14819 -0.0107977 0)
(-0.296324 -0.322525 0)
(-0.352902 -0.232458 0)
(-0.35256 -0.148168 0)
(-0.328985 -0.106949 0)
(-0.297441 -0.0983507 0)
(-0.270159 -0.100407 0)
(-0.250159 -0.105822 0)
(-0.23639 -0.112971 0)
(-0.226737 -0.12187 0)
(-0.219384 -0.133061 0)
(-0.213259 -0.146983 0)
(-0.208077 -0.163047 0)
(-0.204192 -0.178857 0)
(-0.20252 -0.190196 0)
(-0.20421 -0.194313 0)
(-0.209558 -0.193636 0)
(-0.217308 -0.190185 0)
(-0.225828 -0.185658 0)
(-0.233854 -0.181121 0)
(-0.240641 -0.177041 0)
(-0.245838 -0.173466 0)
(-0.249375 -0.170205 0)
(-0.251409 -0.16697 0)
(-0.252297 -0.163478 0)
(-0.252507 -0.159517 0)
(-0.252469 -0.154977 0)
(-0.252458 -0.149844 0)
(-0.252653 -0.144164 0)
(-0.253345 -0.138033 0)
(-0.255031 -0.131479 0)
(-0.258353 -0.124203 0)
(-0.264116 -0.115217 0)
(-0.273402 -0.102506 0)
(-0.286938 -0.0831783 0)
(-0.302022 -0.0542529 0)
(-0.307427 -0.0128972 0)
(-0.289179 0.0453228 0)
(-0.280466 0.123648 0)
(-0.628189 0.223454 0)
)
;

boundaryField
{
    floor
    {
        type            noSlip;
    }
    ceiling
    {
        type            noSlip;
    }
    sWall
    {
        type            noSlip;
    }
    nWall
    {
        type            noSlip;
    }
    sideWalls
    {
        type            empty;
    }
    glass1
    {
        type            noSlip;
    }
    glass2
    {
        type            noSlip;
    }
    sun
    {
        type            noSlip;
    }
    Table_master
    {
        type            noSlip;
    }
    Table_slave
    {
        type            noSlip;
    }
    inlet
    {
        type            fixedValue;
        value           uniform (0.5 0 0);
    }
    outlet
    {
        type            zeroGradient;
    }
}


// ************************************************************************* //
