/*--------------------------------*- C++ -*----------------------------------*\
  =========                 |
  \\      /  F ield         | OpenFOAM: The Open Source CFD Toolbox
   \\    /   O peration     | Website:  https://openfoam.org
    \\  /    A nd           | Version:  6
     \\/     M anipulation  |
\*---------------------------------------------------------------------------*/
FoamFile
{
    version     2.0;
    format      ascii;
    class       volScalarField;
    location    "7800";
    object      nut;
}
// * * * * * * * * * * * * * * * * * * * * * * * * * * * * * * * * * * * * * //

dimensions      [0 2 -1 0 0 0 0];

internalField   nonuniform List<scalar> 
778
(
0.000839134
0.000888414
0.00123265
0.000886892
0.0021819
0.00157101
0.000923868
0.00182825
0.00306413
0.00190514
0.000956849
0.00206145
0.00212134
0.00424183
0.00224155
0.000986155
0.00221298
0.00295283
0.00202045
0.0057908
0.00257744
0.00101284
0.00237605
0.00323041
0.0033569
0.00205138
0.00757716
0.00292323
0.00103801
0.00253788
0.00347951
0.00376343
0.00325392
0.00249499
0.00926517
0.00323292
0.00106278
0.00268528
0.0037071
0.0040001
0.00390359
0.0027744
0.00349646
0.0105764
0.00333485
0.00108847
0.00280236
0.00390488
0.00417471
0.00409364
0.00379719
0.00225763
0.00501584
0.0102185
0.00328244
0.00111435
0.00287075
0.00406691
0.00429401
0.00416194
0.00399338
0.00349419
0.0021726
0.00648448
0.00830046
0.00309147
0.00114016
0.00290328
0.00418516
0.00436696
0.00414623
0.00396747
0.00383872
0.00283227
0.00304505
0.00682614
0.00710949
0.00282694
0.00116741
0.00287944
0.00427514
0.0044079
0.00407226
0.00382652
0.00378911
0.00350978
0.00189717
0.00444852
0.00664931
0.00639892
0.00258067
0.00119874
0.00276059
0.00437192
0.00445296
0.00398452
0.00361121
0.00358794
0.00359486
0.00232689
0.00278538
0.00521939
0.00643039
0.00570787
0.00258011
0.0012337
0.00247163
0.00447047
0.0045753
0.00395149
0.0034007
0.00328068
0.00345026
0.00275893
0.00204998
0.00391476
0.00558822
0.00613966
0.00567091
0.00233217
0.00193593
0.0045422
0.00479904
0.00404945
0.00331316
0.00295221
0.0031509
0.00284294
0.00188761
0.00306497
0.00469086
0.00573741
0.00623079
0.00242243
0.00134898
0.00451546
0.00512516
0.00430615
0.00340852
0.00283831
0.0026319
0.00260153
0.00196565
0.00263091
0.00401268
0.00516164
0.00576196
0.00239135
0.00131573
0.00419187
0.00549576
0.00473334
0.0036825
0.00298189
0.00259556
0.00240313
0.00213866
0.00250604
0.00360255
0.00467397
0.00529311
0.00297527
0.000192688
0.00129196
0.00318544
0.0057168
0.00531454
0.00413477
0.00329515
0.00282975
0.00256168
0.00240784
0.00263785
0.00343413
0.00433985
0.00490255
0.00331821
0.000100179
0.00271122
0.00153741
0.00539679
0.00596889
0.0047703
0.00376786
0.00318849
0.00286658
0.00272732
0.00287104
0.00342828
0.00415245
0.0046034
0.00342912
0.000128157
0.00041018
0.00248694
0.0040448
0.0065877
0.00554381
0.00442948
0.00367181
0.00324749
0.00305703
0.0031125
0.00347382
0.00400478
0.00434546
0.00338375
0.000233969
0.000267025
0.000913611
0.00391636
0.00446886
0.00159227
0.00706207
0.00639721
0.00523847
0.00432843
0.0037486
0.00343671
0.00336387
0.00353544
0.00385086
0.0040007
0.00312344
0.000319652
0.000390183
0.0021731
0.00539316
0.00242362
0.00388199
0.00184454
0.0043046
0.00696048
0.00721748
0.00612128
0.00515442
0.00443547
0.00396569
0.00372306
0.00368836
0.003773
0.00371281
0.00285655
0.000511258
0.00133221
0.00540775
0.00654783
0.00189366
0.00236637
0.00191875
0.00142929
0.00598845
0.00734177
0.00770553
0.00694836
0.00605567
0.00529988
0.00471488
0.00431245
0.00408155
0.0039548
0.0037331
0.00298406
0.00138018
0.00387261
0.0081935
0.00805311
0.00194793
0.00232026
0.00117863
0.00344006
0.00669533
0.00763625
0.00789215
0.00753753
0.00687971
0.00622783
0.00564601
0.00517004
0.00481603
0.00455576
0.00427834
0.00378031
0.00320359
0.00679456
0.0100424
0.0090426
0.00193554
0.000878087
0.00216888
0.00471181
0.00678877
0.00772953
0.00795047
0.00781042
0.00746994
0.00704584
0.00660622
0.00619213
0.00584169
0.00557196
0.00536554
0.00521674
0.00556091
0.00903239
0.0110679
0.0094709
0.00186
0.000904829
0.0029972
0.00517862
0.00576554
0.00762206
0.00788285
0.00785448
0.00775042
0.00759774
0.00739665
0.00716836
0.00695399
0.00680107
0.00676236
0.0069525
0.00781157
0.0104142
0.0115055
0.00946819
0.00175221
0.000911208
0.0034137
0.00459404
0.00132473
0.00719363
0.00770681
0.00772897
0.00775366
0.00781213
0.00785992
0.00787617
0.00788156
0.00792725
0.00809182
0.00851375
0.00947705
0.0110925
0.0114752
0.00915234
0.00163919
0.000897077
0.0033736
0.00117668
0.00120564
0.00582678
0.0074327
0.0075
0.0075548
0.00771687
0.00793892
0.00817051
0.00839955
0.0086541
0.00899533
0.0095147
0.0102906
0.0111509
0.0109836
0.00858671
0.00153374
0.000867031
0.00262981
0.00102163
0.00111473
0.00507745
0.00699863
0.00723221
0.00725142
0.00740573
0.00768385
0.00802936
0.00840633
0.00880812
0.00925203
0.00975151
0.0102345
0.0104591
0.0100429
0.00780863
0.00143756
0.000822063
0.00224412
0.000902838
0.00103894
0.00455378
0.00656758
0.00696095
0.00693901
0.00700452
0.00722138
0.00755056
0.00794658
0.00838155
0.00882264
0.00921673
0.0094053
0.00919863
0.00871955
0.00688169
0.00135052
0.000775502
0.00198065
0.000810434
0.000974535
0.00413683
0.00617195
0.00671541
0.00668263
0.00663395
0.00671381
0.00691376
0.00719948
0.00752774
0.00785977
0.00807959
0.00806452
0.00767669
0.00722671
0.0059336
0.00127518
0.000731839
0.00178137
0.000737305
0.000916843
0.00371216
0.00579815
0.00649626
0.0065048
0.0063737
0.00630837
0.00633399
0.00642597
0.00656024
0.00668216
0.00673822
0.00661241
0.00619668
0.00585456
0.00512887
0.00121552
0.000692027
0.00161827
0.000678528
0.000862489
0.00329039
0.00537199
0.00627727
0.00638805
0.00624166
0.0060879
0.00598199
0.00590395
0.00584116
0.00572089
0.00557946
0.00535353
0.00498497
0.00483067
0.00454496
0.0011735
0.000656299
0.0014794
0.000630779
0.000808459
0.00287417
0.00489727
0.00599987
0.00628751
0.00620105
0.00604171
0.00590087
0.00575848
0.00549129
0.00511833
0.00474265
0.00442057
0.00417691
0.00421375
0.00412144
0.00114779
0.000624086
0.00135694
0.000592191
0.000749984
0.00245829
0.00437328
0.00564287
0.00614337
0.0061871
0.00609013
0.00599015
0.00583652
0.0054256
0.00480499
0.00420823
0.00384203
0.0037215
0.00385813
0.00380579
0.00113738
0.000594835
0.00124255
0.000562626
0.000703174
0.00203181
0.00379708
0.00519197
0.00591407
0.00613205
0.00613648
0.00610939
0.00597132
0.00550077
0.00469417
0.00391911
0.00351883
0.0034633
0.00362598
0.0035566
0.00113466
0.000567929
0.00112941
0.000625049
0.000732337
0.00157296
0.00316642
0.00463977
0.00557307
0.00598885
0.00611573
0.00614999
0.00606933
0.00561492
0.00471784
0.00378986
0.0033281
0.00329447
0.00345446
0.00335654
0.00113823
0.000542581
0.00102729
0.000740146
0.00124607
0.00121353
0.00248821
0.00398674
0.00510762
0.00573064
0.00600147
0.00610059
0.00606304
0.00569672
0.00480794
0.00375636
0.00320034
0.00317024
0.00332728
0.0032076
0.00114854
0.000517704
0.000939795
0.00115682
0.000656288
0.00123118
0.00187022
0.00325245
0.00451728
0.00534501
0.00577925
0.00596825
0.00597684
0.00568727
0.00489325
0.00377628
0.00310681
0.00307494
0.00324353
0.00311843
0.00116583
0.000491481
0.00104427
0.000596958
0.000968717
0.00143412
0.00252439
0.00382134
0.0048309
0.00543995
0.00574549
0.00582245
0.00559652
0.00489936
0.00380301
0.00303215
0.00300011
0.00320194
0.00309546
0.00118932
0.000468411
0.000527717
0.000776782
0.00112029
0.00185247
0.00308232
0.00420295
0.00498067
0.00542088
0.00559047
0.00543262
0.00480709
0.00376796
0.00295609
0.00293527
0.00319458
0.00313766
0.00121721
0.000423547
0.00101385
0.00124804
0.00138258
0.00233512
0.00349797
0.0044062
0.00498542
0.00526474
0.0051856
0.00461962
0.00362641
0.00284453
0.00286408
0.00320528
0.00323335
0.00124732
0.000973776
0.00216264
0.00125197
0.00167144
0.00271207
0.00370383
0.00442263
0.00482638
0.00483843
0.0043285
0.00337927
0.00266761
0.00276559
0.00321112
0.00335865
0.00127771
0.00116451
0.00219023
0.00112953
0.00167299
0.0026853
0.00360216
0.00421262
0.00436272
0.00393026
0.00303934
0.00243764
0.00263554
0.00318935
0.0034789
0.00130718
0.00136869
0.00313515
0.00134523
0.00132292
0.00216072
0.00304094
0.00363858
0.00342883
0.00265401
0.00219917
0.00249826
0.00314652
0.00355571
0.00133558
0.00178236
0.00475769
0.00225837
0.00138248
0.00151136
0.00234723
0.00279985
0.00229365
0.00201633
0.00239247
0.00311245
0.00359467
0.0013638
0.00202737
0.00493714
0.00287549
0.00179089
0.00143891
0.00199975
0.00201004
0.0019338
0.00235853
0.00310783
0.00363235
0.00139234
0.00207291
0.00481518
0.00320487
0.00207042
0.00152936
0.00181465
0.0019577
0.00241707
0.00314873
0.00368986
0.0014228
0.00206058
0.00445909
0.00337396
0.00216069
0.00178555
0.00208239
0.00256453
0.00324226
0.00377789
0.00145739
0.00200235
0.00426721
0.00351332
0.00234438
0.00234799
0.0027963
0.00338267
0.00389966
0.00149762
0.00194603
0.00479796
0.00388924
0.00295314
0.00314438
0.00355571
0.00405334
0.00154415
0.00198037
0.00481985
0.00459906
0.00372443
0.00375111
0.00423627
0.00159683
0.00210151
0.00504555
0.00500422
0.00397487
0.00444747
0.00165429
0.00213206
0.00546689
0.00424452
0.00468497
0.00171375
0.00213796
0.00432998
0.00496225
0.00177494
0.00203945
0.00487158
0.00185849
0.00201488
0.00199054
0.00196065
)
;

boundaryField
{
    floor
    {
        type            nutkWallFunction;
        Cmu             0.09;
        kappa           0.41;
        E               9.8;
        value           nonuniform List<scalar> 
36
(
0.000147868
0.000106269
0.000109457
0.000110216
0.000108534
0.000104948
9.95538e-05
9.39317e-05
8.86232e-05
8.375e-05
7.93481e-05
7.53545e-05
7.17064e-05
6.83315e-05
6.51338e-05
6.19778e-05
5.86304e-05
5.56671e-05
4.98506e-05
4.98506e-05
6.32499e-05
7.19717e-05
7.9347e-05
9.40868e-05
0.000122332
0.000117625
0.000147868
0.000161041
0.000157255
0.000154541
0.000106269
0.000154541
0.000141525
0.000182309
0.00017014
0.000188444
)
;
    }
    ceiling
    {
        type            nutkWallFunction;
        Cmu             0.09;
        kappa           0.41;
        E               9.8;
        value           nonuniform List<scalar> 
43
(
0.000267942
0.000224479
0.000216346
0.000221736
0.000227676
0.000226331
0.000218065
0.000206195
0.000193656
0.000181868
0.000171038
0.000161172
0.000152582
0.00014575
0.000140924
0.000137965
0.000136763
0.000136449
0.000136858
0.000138044
0.000140034
0.000142741
0.000145958
0.000149429
0.000152928
0.000156316
0.000159573
0.000162799
0.000166051
0.000169507
0.000173418
0.000177952
0.000183186
0.000189095
0.000195523
0.00020215
0.000208916
0.000217995
0.000232348
0.000229287
0.0002694
0.00027905
0.000309039
)
;
    }
    sWall
    {
        type            nutkWallFunction;
        Cmu             0.09;
        kappa           0.41;
        E               9.8;
        value           nonuniform List<scalar> 9(0.000369517 0.000349686 0.000322007 0.000295998 0.000295936 0.00026949 0.000279035 0.000272942 0.000268039);
    }
    nWall
    {
        type            nutkWallFunction;
        Cmu             0.09;
        kappa           0.41;
        E               9.8;
        value           nonuniform List<scalar> 
14
(
0.000117633
0.000139911
0.000163297
0.000241349
0.000239973
0.000233617
0.000227535
0.000231511
0.000244501
0.000247789
0.000248224
0.000237606
0.000235198
0.000229323
)
;
    }
    sideWalls
    {
        type            empty;
    }
    glass1
    {
        type            nutkWallFunction;
        Cmu             0.09;
        kappa           0.41;
        E               9.8;
        value           nonuniform List<scalar> 9(0.000101626 0.000147914 0.000186342 0.000223391 0.000259985 0.00029594 0.000332443 0.000364756 0.000375329);
    }
    glass2
    {
        type            nutkWallFunction;
        Cmu             0.09;
        kappa           0.41;
        E               9.8;
        value           nonuniform List<scalar> 2(0.000209657 0.000236556);
    }
    sun
    {
        type            nutkWallFunction;
        Cmu             0.09;
        kappa           0.41;
        E               9.8;
        value           nonuniform List<scalar> 
14
(
0.000101607
0.000107502
0.000107321
0.00011172
0.000115628
0.000119086
0.000122226
0.000125178
0.000128075
0.000131072
0.000134083
0.000137078
0.000140231
0.000143846
)
;
    }
    Table_master
    {
        type            nutkWallFunction;
        Cmu             0.09;
        kappa           0.41;
        E               9.8;
        value           nonuniform List<scalar> 9(0.000141291 0.00012325 0.000109217 9.81526e-05 8.92913e-05 8.20937e-05 7.61916e-05 7.13827e-05 6.76724e-05);
    }
    Table_slave
    {
        type            nutkWallFunction;
        Cmu             0.09;
        kappa           0.41;
        E               9.8;
        value           nonuniform List<scalar> 9(0.000158268 0.00014463 0.000134117 0.000125279 0.00011771 0.000110882 0.000104402 9.79144e-05 9.08349e-05);
    }
    inlet
    {
        type            calculated;
        value           uniform 0.000528271;
    }
    outlet
    {
        type            calculated;
        value           nonuniform List<scalar> 2(0.00242362 0.00391636);
    }
}


// ************************************************************************* //
