/*--------------------------------*- C++ -*----------------------------------*\
  =========                 |
  \\      /  F ield         | OpenFOAM: The Open Source CFD Toolbox
   \\    /   O peration     | Website:  https://openfoam.org
    \\  /    A nd           | Version:  6
     \\/     M anipulation  |
\*---------------------------------------------------------------------------*/
FoamFile
{
    version     2.0;
    format      ascii;
    class       volVectorField;
    location    "39899.9999991415752";
    object      U;
}
// * * * * * * * * * * * * * * * * * * * * * * * * * * * * * * * * * * * * * //

dimensions      [0 1 -1 0 0 0 0];

internalField   nonuniform List<vector> 
778
(
(0.0656002 0.0794063 0)
(-0.155175 0.0157631 0)
(-0.164297 0.0146211 0)
(-0.192408 0.0122706 0)
(-0.216837 0.00872028 0)
(-0.236889 0.00473985 0)
(-0.252009 0.000414056 0)
(-0.261773 -0.00436969 0)
(-0.26567 -0.00981014 0)
(-0.262696 -0.016188 0)
(-0.250897 -0.0242592 0)
(-0.226205 -0.034876 0)
(-0.186093 -0.0503951 0)
(-0.144163 -0.0751616 0)
(-0.15004 -0.108548 0)
(0.0546813 0.0354991 0)
(0.0158117 -0.0268973 0)
(0.0450329 -0.0232821 0)
(0.0694758 -0.0161773 0)
(0.0845716 -0.0103666 0)
(0.091801 -0.0064182 0)
(0.0946392 -0.00433698 0)
(0.0956704 -0.00331577 0)
(0.0961254 -0.00273005 0)
(0.0963009 -0.00231696 0)
(0.0961796 -0.00195186 0)
(0.0956536 -0.00151031 0)
(0.0943934 -0.000754972 0)
(0.09154 0.000851541 0)
(0.0853225 0.00407954 0)
(0.073756 0.00779584 0)
(0.0600481 0.0116511 0)
(-0.00785416 0.0300289 0)
(0.2584 0.167392 0)
(-0.161234 0.0483888 0)
(-0.141598 0.0459731 0)
(-0.173996 0.0416046 0)
(-0.199351 0.0356557 0)
(-0.220062 0.0291164 0)
(-0.236083 0.0220466 0)
(-0.247328 0.0142198 0)
(-0.253499 0.00529208 0)
(-0.253818 -0.00515257 0)
(-0.247668 -0.0170789 0)
(-0.23397 -0.0308452 0)
(-0.214071 -0.048071 0)
(-0.1975 -0.0699535 0)
(-0.193992 -0.0826291 0)
(-0.166395 -0.0425306 0)
(-0.105359 -0.0363481 0)
(-0.0983199 -0.0444543 0)
(0.109354 -0.0421617 0)
(0.0644896 -0.0412405 0)
(0.0719764 -0.0323414 0)
(0.0860073 -0.0207874 0)
(0.0939621 -0.0105277 0)
(0.0962292 -0.00365146 0)
(0.0959939 -0.000190717 0)
(0.0955983 0.00124933 0)
(0.0955566 0.00189045 0)
(0.0956355 0.00226265 0)
(0.0956431 0.00258708 0)
(0.095544 0.00313298 0)
(0.0952535 0.00441844 0)
(0.0939951 0.00774071 0)
(0.0883913 0.0167896 0)
(0.0746116 0.0254008 0)
(0.0632208 0.0330564 0)
(-0.0518453 0.0636975 0)
(0.429982 0.253952 0)
(-0.194235 0.0847543 0)
(-0.112773 0.0784197 0)
(-0.148233 0.0669374 0)
(-0.170657 0.055478 0)
(-0.188742 0.0437046 0)
(-0.202569 0.0313247 0)
(-0.212254 0.0179948 0)
(-0.2176 0.00339535 0)
(-0.217956 -0.0126268 0)
(-0.212702 -0.0303133 0)
(-0.201599 -0.0498972 0)
(-0.185959 -0.0715615 0)
(-0.169417 -0.0932095 0)
(-0.151038 -0.104559 0)
(-0.120196 -0.0931277 0)
(-0.0795038 -0.0949141 0)
(-0.071397 -0.107564 0)
(0.0921811 -0.0882266 0)
(0.0626152 -0.0658428 0)
(0.0744358 -0.0462339 0)
(0.0881062 -0.0293695 0)
(0.0950052 -0.0150422 0)
(0.0921523 -0.0120707 0)
(0.087911 -0.00795751 0)
(0.0855359 -0.00577795 0)
(0.0848424 -0.00455773 0)
(0.0848157 -0.00379904 0)
(0.085067 -0.00322831 0)
(0.0857181 -0.00260014 0)
(0.0874825 -0.00143787 0)
(0.0921765 0.0029274 0)
(0.0903452 0.0251384 0)
(0.0735356 0.0424431 0)
(0.0702288 0.0576315 0)
(-0.0897915 0.101153 0)
(0.578548 0.325837 0)
(-0.240106 0.121803 0)
(-0.0808286 0.109205 0)
(-0.121564 0.0898291 0)
(-0.138991 0.0740398 0)
(-0.153044 0.058605 0)
(-0.163796 0.0427251 0)
(-0.171383 0.025789 0)
(-0.175587 0.0071883 0)
(-0.175649 -0.0135296 0)
(-0.17096 -0.03646 0)
(-0.161391 -0.0614438 0)
(-0.147518 -0.0873658 0)
(-0.130526 -0.110301 0)
(-0.109552 -0.123199 0)
(-0.0820593 -0.124527 0)
(-0.0524359 -0.126342 0)
(-0.0332971 -0.123165 0)
(0.0164844 -0.0568122 0)
(0.0609173 -0.0930622 0)
(0.0685547 -0.0792633 0)
(0.0791621 -0.0589287 0)
(0.0916492 -0.0397109 0)
(0.102976 -0.0210632 0)
(0.115733 -0.0132894 0)
(0.12696 -0.00886241 0)
(0.132624 -0.00563255 0)
(0.133656 -0.00311778 0)
(0.131168 -0.000890565 0)
(0.125735 0.00128082 0)
(0.117227 0.00366426 0)
(0.104878 0.00672324 0)
(0.0856299 0.0111599 0)
(0.0717399 0.0368587 0)
(0.0604532 0.0606489 0)
(0.0765027 0.0835702 0)
(-0.117312 0.137615 0)
(0.705727 0.383675 0)
(-0.287683 0.156997 0)
(-0.0476916 0.13376 0)
(-0.0962828 0.106891 0)
(-0.107729 0.0875624 0)
(-0.116755 0.0691392 0)
(-0.123538 0.0504163 0)
(-0.128191 0.030564 0)
(-0.130544 0.00871098 0)
(-0.129731 -0.0158209 0)
(-0.125228 -0.0430693 0)
(-0.116598 -0.072675 0)
(-0.103863 -0.102825 0)
(-0.0873662 -0.129097 0)
(-0.0673929 -0.14579 0)
(-0.044028 -0.152255 0)
(-0.0201549 -0.152341 0)
(0.000397919 -0.143684 0)
(0.0309161 -0.114999 0)
(0.057075 -0.109382 0)
(0.0706415 -0.092496 0)
(0.0807617 -0.0713521 0)
(0.0908123 -0.0509204 0)
(0.100368 -0.0328881 0)
(0.109502 -0.0194846 0)
(0.116578 -0.0100903 0)
(0.120058 -0.00338618 0)
(0.12031 0.00187624 0)
(0.11794 0.00643188 0)
(0.11332 0.0107954 0)
(0.106476 0.0154775 0)
(0.0973414 0.0211796 0)
(0.085423 0.0292021 0)
(0.0738793 0.0472333 0)
(0.0634215 0.0713309 0)
(0.0951078 0.0995564 0)
(0.0174051 0.138793 0)
(0.0970061 0.18276 0)
(0.140345 0.145867 0)
(-0.220508 0.201595 0)
(0.81043 0.431968 0)
(-0.331321 0.190666 0)
(-0.0173129 0.150224 0)
(-0.0733589 0.117491 0)
(-0.07858 0.0954768 0)
(-0.0821961 0.0749083 0)
(-0.084445 0.054308 0)
(-0.085477 0.0326917 0)
(-0.0852156 0.00884305 0)
(-0.0825342 -0.0184133 0)
(-0.0773612 -0.0490165 0)
(-0.0687216 -0.0824928 0)
(-0.0567029 -0.11651 0)
(-0.0416092 -0.146334 0)
(-0.0245905 -0.166021 0)
(-0.00617015 -0.174502 0)
(0.0122264 -0.172724 0)
(0.0281491 -0.160972 0)
(0.0463034 -0.139301 0)
(0.0627341 -0.122348 0)
(0.0733814 -0.102535 0)
(0.0810364 -0.0805216 0)
(0.087781 -0.0592113 0)
(0.0939642 -0.0403568 0)
(0.099321 -0.025185 0)
(0.103057 -0.0138262 0)
(0.104718 -0.00512868 0)
(0.104348 0.00207174 0)
(0.102242 0.00855219 0)
(0.0986468 0.014831 0)
(0.0937167 0.0214337 0)
(0.0876826 0.0289911 0)
(0.0808128 0.0384137 0)
(0.0750654 0.052845 0)
(0.0698653 0.0728511 0)
(0.0920842 0.0986034 0)
(0.0742565 0.107486 0)
(0.0912923 0.0480101 0)
(0.146527 -0.0354151 0)
(-0.322925 0.107015 0)
(0.879892 0.47468 0)
(-0.368639 0.220947 0)
(0.00371635 0.155529 0)
(-0.0526537 0.121537 0)
(-0.0521955 0.0978137 0)
(-0.0510087 0.0757812 0)
(-0.0489982 0.054006 0)
(-0.0464767 0.0315054 0)
(-0.0432829 0.00675453 0)
(-0.0373164 -0.0223021 0)
(-0.0302337 -0.0553597 0)
(-0.0204327 -0.0919379 0)
(-0.00859809 -0.128914 0)
(0.00465026 -0.161292 0)
(0.0177361 -0.18192 0)
(0.0305506 -0.190229 0)
(0.0423744 -0.187208 0)
(0.0526831 -0.174373 0)
(0.0626383 -0.154015 0)
(0.0711875 -0.132375 0)
(0.0766807 -0.109392 0)
(0.080112 -0.0859339 0)
(0.0826926 -0.063801 0)
(0.0849302 -0.044338 0)
(0.086786 -0.0282622 0)
(0.0879242 -0.0154804 0)
(0.0881128 -0.00521579 0)
(0.0871982 0.00344834 0)
(0.0853523 0.0111947 0)
(0.0827176 0.0185453 0)
(0.0794637 0.0259973 0)
(0.0758664 0.0340464 0)
(0.0723322 0.0432389 0)
(0.070254 0.054852 0)
(0.0690578 0.0692669 0)
(0.0822196 0.088223 0)
(0.0856945 0.0914767 0)
(0.0916401 0.0542577 0)
(0.181689 0.0273512 0)
(-0.277978 0.156792 0)
(0.927926 0.51714 0)
(-0.383152 0.234141 0)
(0.0168883 0.132926 0)
(-0.0273146 0.116609 0)
(-0.0265356 0.0948747 0)
(-0.0227195 0.0723795 0)
(-0.0175975 0.0500571 0)
(-0.0123144 0.0272114 0)
(-0.00533255 0.00182286 0)
(0.0046435 -0.0307511 0)
(0.0143795 -0.0653322 0)
(0.025698 -0.103346 0)
(0.0373626 -0.140891 0)
(0.048058 -0.172186 0)
(0.0571647 -0.192372 0)
(0.0646683 -0.19983 0)
(0.0703934 -0.195369 0)
(0.0743405 -0.181138 0)
(0.0770191 -0.160034 0)
(0.0783476 -0.136043 0)
(0.0779505 -0.11106 0)
(0.076412 -0.0865845 0)
(0.0745712 -0.0640787 0)
(0.0729604 -0.044533 0)
(0.0717213 -0.0283168 0)
(0.0707173 -0.0151444 0)
(0.0697437 -0.00431717 0)
(0.0685069 0.00493931 0)
(0.0670953 0.0132068 0)
(0.0654745 0.0209698 0)
(0.0637132 0.0286504 0)
(0.061987 0.0365919 0)
(0.0605928 0.0450631 0)
(0.0604128 0.0544931 0)
(0.0613665 0.0647851 0)
(0.0703036 0.0774657 0)
(0.0808624 0.0802039 0)
(0.0826712 0.0605551 0)
(0.239115 0.0570375 0)
(-0.543329 0.235408 0)
(1.01129 0.50679 0)
(-0.137118 0.296322 0)
(0.0410966 0.161476 0)
(0.0406463 0.122018 0)
(0.0131274 0.0918994 0)
(0.00870666 0.0652861 0)
(0.0141439 0.0413127 0)
(0.020785 0.0169087 0)
(0.0326109 -0.0110783 0)
(0.044093 -0.0421859 0)
(0.0559876 -0.0769358 0)
(0.0682857 -0.114669 0)
(0.0794391 -0.151147 0)
(0.0879462 -0.180618 0)
(0.0931636 -0.19863 0)
(0.0952059 -0.203765 0)
(0.0944817 -0.197076 0)
(0.0915375 -0.180995 0)
(0.0870492 -0.158578 0)
(0.0814683 -0.133151 0)
(0.0750923 -0.10715 0)
(0.0685285 -0.0823985 0)
(0.0625089 -0.0602419 0)
(0.0575632 -0.0413956 0)
(0.0538896 -0.0259328 0)
(0.0513837 -0.0133491 0)
(0.0497655 -0.00286555 0)
(0.0486305 0.00621239 0)
(0.0479173 0.0143885 0)
(0.0473876 0.0221032 0)
(0.046969 0.0296914 0)
(0.0466816 0.0373673 0)
(0.0466228 0.0452138 0)
(0.0472012 0.0532368 0)
(0.0484201 0.060925 0)
(0.0540974 0.0681926 0)
(0.0652246 0.0646454 0)
(0.0634173 0.0348722 0)
(0.2876 0.0704903 0)
(-0.746386 0.308976 0)
(0.779311 0.395626 0)
(0.00098021 0.319444 0)
(0.0934475 0.218869 0)
(0.110684 0.155099 0)
(0.0772571 0.106728 0)
(0.059874 0.0674328 0)
(0.0582991 0.0356401 0)
(0.0624839 0.00629497 0)
(0.0739396 -0.0235371 0)
(0.0855381 -0.0551228 0)
(0.0977608 -0.0898157 0)
(0.109647 -0.12632 0)
(0.11903 -0.160106 0)
(0.124129 -0.185817 0)
(0.124346 -0.199867 0)
(0.120111 -0.201425 0)
(0.112375 -0.191858 0)
(0.102211 -0.173726 0)
(0.0906583 -0.150069 0)
(0.0785575 -0.123932 0)
(0.0666019 -0.0978611 0)
(0.0555342 -0.0737771 0)
(0.0460951 -0.052922 0)
(0.0387753 -0.0357312 0)
(0.0336933 -0.0219726 0)
(0.0306071 -0.01085 0)
(0.0290402 -0.00144294 0)
(0.0285094 0.00688363 0)
(0.0286995 0.0145794 0)
(0.0292603 0.0220152 0)
(0.0300211 0.0294317 0)
(0.0308546 0.0369696 0)
(0.0316018 0.0446638 0)
(0.0320581 0.0524551 0)
(0.0312525 0.0599077 0)
(0.0294434 0.0665423 0)
(0.0136836 0.0669131 0)
(0.00407307 0.100144 0)
(0.0231371 0.178262 0)
(-0.634093 0.303811 0)
(0.617233 0.220625 0)
(0.00478931 0.29802 0)
(0.113083 0.241488 0)
(0.148367 0.177472 0)
(0.130945 0.123392 0)
(0.117929 0.0776923 0)
(0.115079 0.0387349 0)
(0.117269 0.0032356 0)
(0.123665 -0.0308684 0)
(0.131923 -0.0651271 0)
(0.141639 -0.100589 0)
(0.150539 -0.135446 0)
(0.155677 -0.165312 0)
(0.15512 -0.185835 0)
(0.148556 -0.194699 0)
(0.136889 -0.191926 0)
(0.121587 -0.179264 0)
(0.10415 -0.159291 0)
(0.0859476 -0.134929 0)
(0.0680823 -0.108975 0)
(0.0515045 -0.0839289 0)
(0.0371061 -0.0616677 0)
(0.0256628 -0.0432809 0)
(0.0175012 -0.0288217 0)
(0.0124387 -0.0176582 0)
(0.00982308 -0.00860504 0)
(0.00891754 -0.000667751 0)
(0.00925161 0.00667182 0)
(0.0103091 0.0137573 0)
(0.0118124 0.0208468 0)
(0.013581 0.0281002 0)
(0.0154249 0.0356641 0)
(0.0170415 0.0437001 0)
(0.0179061 0.0524763 0)
(0.0166885 0.0623669 0)
(0.0125495 0.0748094 0)
(-0.0159955 0.0998608 0)
(-0.0158644 0.15329 0)
(0.000513127 0.185395 0)
(-0.542075 0.174066 0)
(0.570785 0.118209 0)
(-0.0202531 0.258516 0)
(0.113716 0.22983 0)
(0.165069 0.175972 0)
(0.166748 0.126054 0)
(0.164428 0.0809353 0)
(0.165441 0.0397854 0)
(0.168419 0.00143013 0)
(0.172406 -0.0355761 0)
(0.178013 -0.0720588 0)
(0.184212 -0.107685 0)
(0.187924 -0.139705 0)
(0.186127 -0.164241 0)
(0.177443 -0.178467 0)
(0.16232 -0.181578 0)
(0.142299 -0.174466 0)
(0.119311 -0.159158 0)
(0.0951036 -0.138099 0)
(0.0712633 -0.114022 0)
(0.0490087 -0.0894308 0)
(0.0295175 -0.0667511 0)
(0.0138288 -0.0477456 0)
(0.00261999 -0.03318 0)
(-0.00439771 -0.0223351 0)
(-0.00797988 -0.0142702 0)
(-0.0094769 -0.00733911 0)
(-0.00957314 -0.000819677 0)
(-0.00856089 0.00558143 0)
(-0.00691807 0.0120464 0)
(-0.00475314 0.0187186 0)
(-0.00220058 0.0257166 0)
(0.000640364 0.0333095 0)
(0.00351372 0.0417552 0)
(0.00602118 0.0517376 0)
(0.00724395 0.0646031 0)
(0.00782337 0.0835221 0)
(-0.00980135 0.120078 0)
(-0.0124967 0.188881 0)
(0.10004 0.199634 0)
(-0.495451 0.0639179 0)
(0.628505 0.0534236 0)
(0.0091434 0.197228 0)
(0.113719 0.196908 0)
(0.17504 0.157842 0)
(0.191313 0.117543 0)
(0.198 0.0770783 0)
(0.203372 0.0370393 0)
(0.208625 -0.00176533 0)
(0.21318 -0.0398977 0)
(0.217533 -0.0767174 0)
(0.219387 -0.110084 0)
(0.215579 -0.136851 0)
(0.204226 -0.154415 0)
(0.18542 -0.161773 0)
(0.160775 -0.159476 0)
(0.13245 -0.148923 0)
(0.102666 -0.132173 0)
(0.0731201 -0.111328 0)
(0.0455692 -0.0889334 0)
(0.0211737 -0.0671783 0)
(0.00154479 -0.0484812 0)
(-0.0122822 -0.034515 0)
(-0.0203482 -0.0252332 0)
(-0.024782 -0.0183403 0)
(-0.0268275 -0.0125637 0)
(-0.0273771 -0.00710424 0)
(-0.0268619 -0.00162255 0)
(-0.0254142 0.00402053 0)
(-0.023416 0.00989488 0)
(-0.0208448 0.0160755 0)
(-0.0177805 0.0226543 0)
(-0.0142355 0.0298543 0)
(-0.0102123 0.0380893 0)
(-0.00578761 0.0482321 0)
(-0.00145154 0.0623875 0)
(0.00420209 0.0853554 0)
(0.00306427 0.123021 0)
(-0.0037806 0.188446 0)
(0.164088 0.203953 0)
(-0.368098 0.103469 0)
(0.472157 0.0747784 0)
(-0.13223 0.137528 0)
(0.0941132 0.133221 0)
(0.172574 0.116676 0)
(0.203695 0.0951609 0)
(0.218006 0.0641469 0)
(0.228034 0.0280883 0)
(0.23716 -0.00928265 0)
(0.243586 -0.0456002 0)
(0.245126 -0.0784881 0)
(0.239174 -0.105303 0)
(0.224388 -0.123993 0)
(0.201297 -0.133702 0)
(0.17182 -0.134868 0)
(0.138525 -0.128724 0)
(0.103683 -0.116534 0)
(0.0695537 -0.100137 0)
(0.0373139 -0.0811604 0)
(0.00929412 -0.0621378 0)
(-0.0138604 -0.044995 0)
(-0.0284493 -0.0336255 0)
(-0.037392 -0.0260242 0)
(-0.0423748 -0.0206093 0)
(-0.0449584 -0.0160918 0)
(-0.045937 -0.0118505 0)
(-0.0457706 -0.00750582 0)
(-0.044715 -0.00287755 0)
(-0.0428344 0.00212061 0)
(-0.0405604 0.00744886 0)
(-0.0377809 0.0131187 0)
(-0.0345542 0.0192033 0)
(-0.0308883 0.0258509 0)
(-0.0267085 0.0334131 0)
(-0.0220164 0.0429256 0)
(-0.0174554 0.0574001 0)
(-0.0122299 0.0807589 0)
(-0.00486423 0.110566 0)
(-0.00232468 0.155476 0)
(0.184935 0.18248 0)
(-0.325249 0.168004 0)
(0.723906 0.134483 0)
(0.0819254 0.115241 0)
(0.149694 0.0991517 0)
(0.222286 0.0803639 0)
(0.243933 0.0697242 0)
(0.248741 0.0473782 0)
(0.255077 0.0172047 0)
(0.261197 -0.0150512 0)
(0.260225 -0.0450209 0)
(0.249731 -0.0698035 0)
(0.229504 -0.0877108 0)
(0.201145 -0.098274 0)
(0.167044 -0.101795 0)
(0.129745 -0.0992484 0)
(0.0917116 -0.0918614 0)
(0.0543624 -0.0802952 0)
(0.020279 -0.0661578 0)
(-0.0109633 -0.0505855 0)
(-0.0334733 -0.0383333 0)
(-0.0486057 -0.0298718 0)
(-0.0577889 -0.0245938 0)
(-0.0632796 -0.0208876 0)
(-0.0664087 -0.0178658 0)
(-0.0679545 -0.0149618 0)
(-0.0682685 -0.0119098 0)
(-0.0675488 -0.00852126 0)
(-0.0659515 -0.00464714 0)
(-0.063595 -0.00018191 0)
(-0.0608176 0.00479253 0)
(-0.0579448 0.0101622 0)
(-0.0549423 0.0159867 0)
(-0.0520475 0.0224088 0)
(-0.0494824 0.0298591 0)
(-0.0473892 0.0397018 0)
(-0.0462479 0.0546667 0)
(-0.0459451 0.0752425 0)
(-0.0402889 0.0937479 0)
(-0.0234072 0.108227 0)
(0.162152 0.15561 0)
(-0.421867 0.230892 0)
(0.192061 0.0879587 0)
(0.225854 0.0996995 0)
(0.24658 0.0699551 0)
(0.242628 0.0395165 0)
(0.239776 0.0118164 0)
(0.234694 -0.0131285 0)
(0.21991 -0.0335444 0)
(0.196164 -0.0486703 0)
(0.165841 -0.0584948 0)
(0.131412 -0.0634647 0)
(0.0946855 -0.063882 0)
(0.0575856 -0.0604415 0)
(0.0220113 -0.0539567 0)
(-0.0126906 -0.0445187 0)
(-0.0399377 -0.0353606 0)
(-0.0605273 -0.0279253 0)
(-0.0744857 -0.0232109 0)
(-0.0835615 -0.0203664 0)
(-0.089422 -0.0185961 0)
(-0.0933056 -0.0171082 0)
(-0.0957819 -0.0156065 0)
(-0.0970902 -0.0139364 0)
(-0.0973112 -0.0119778 0)
(-0.0964778 -0.00958504 0)
(-0.0946353 -0.00657664 0)
(-0.0918714 -0.0027548 0)
(-0.0882487 0.00197493 0)
(-0.0848055 0.00740106 0)
(-0.0816276 0.0135162 0)
(-0.0791063 0.0206154 0)
(-0.0776883 0.029297 0)
(-0.0773691 0.0408758 0)
(-0.0788099 0.0571676 0)
(-0.0851807 0.0779326 0)
(-0.0933278 0.096652 0)
(-0.0816253 0.11087 0)
(-0.0569102 0.155026 0)
(-0.524565 0.222536 0)
(0.451497 0.209305 0)
(0.207157 0.178611 0)
(0.153373 0.118728 0)
(0.140008 0.0639359 0)
(0.128403 0.0257811 0)
(0.114149 0.00172395 0)
(0.0986659 -0.0130076 0)
(0.0775837 -0.0222157 0)
(0.0529489 -0.0279799 0)
(0.025925 -0.0306506 0)
(-0.00366775 -0.0301163 0)
(-0.0324921 -0.0272527 0)
(-0.0580957 -0.0232958 0)
(-0.0795569 -0.0193372 0)
(-0.0955773 -0.0166324 0)
(-0.10692 -0.0149839 0)
(-0.114811 -0.0141998 0)
(-0.120646 -0.0136657 0)
(-0.125213 -0.013164 0)
(-0.128827 -0.0126305 0)
(-0.131546 -0.0120736 0)
(-0.133333 -0.0114754 0)
(-0.134106 -0.010769 0)
(-0.133751 -0.00980748 0)
(-0.132152 -0.00833018 0)
(-0.129251 -0.0059509 0)
(-0.12508 -0.00223577 0)
(-0.119674 0.00304472 0)
(-0.114646 0.00958664 0)
(-0.110345 0.0175056 0)
(-0.106777 0.027436 0)
(-0.103253 0.0405429 0)
(-0.0990267 0.0582365 0)
(-0.0969086 0.081485 0)
(-0.097032 0.109341 0)
(-0.0686118 0.134477 0)
(-0.0504027 0.130412 0)
(-0.588697 0.0564507 0)
(0.363472 -0.413043 0)
(-0.345612 -0.51274 0)
(-0.218688 -0.0285679 0)
(-0.0923693 0.110803 0)
(-0.0532832 0.0926773 0)
(-0.0311149 0.0547483 0)
(-0.026445 0.028642 0)
(-0.0315873 0.0119087 0)
(-0.0405088 0.000992042 0)
(-0.0509677 -0.00629408 0)
(-0.0645047 -0.0108424 0)
(-0.0796621 -0.013424 0)
(-0.0952701 -0.0151519 0)
(-0.110195 -0.0171129 0)
(-0.123328 -0.0195505 0)
(-0.133735 -0.0222333 0)
(-0.141385 -0.0247967 0)
(-0.147255 -0.0267066 0)
(-0.152317 -0.0279946 0)
(-0.157077 -0.0287789 0)
(-0.161595 -0.0291503 0)
(-0.165732 -0.0291361 0)
(-0.169301 -0.0287355 0)
(-0.1721 -0.0279267 0)
(-0.173896 -0.0266689 0)
(-0.17443 -0.0248896 0)
(-0.173458 -0.0224536 0)
(-0.170843 -0.0191135 0)
(-0.166611 -0.0144752 0)
(-0.160924 -0.00806478 0)
(-0.153789 0.000400691 0)
(-0.146625 0.0106617 0)
(-0.139371 0.0222322 0)
(-0.130404 0.0355082 0)
(-0.117486 0.0513948 0)
(-0.0990758 0.0705683 0)
(-0.0743159 0.095419 0)
(-0.0304246 0.130206 0)
(0.126675 0.137225 0)
(-0.425055 0.0375524 0)
(0.125234 -0.184319 0)
(-0.38717 -0.297169 0)
(-0.342826 -0.0967562 0)
(-0.264499 0.0514076 0)
(-0.210847 0.0836416 0)
(-0.178753 0.0747641 0)
(-0.162509 0.0612788 0)
(-0.15654 0.0512579 0)
(-0.156618 0.0459804 0)
(-0.159865 0.0452171 0)
(-0.16426 0.0480828 0)
(-0.168417 0.0534756 0)
(-0.171722 0.0601527 0)
(-0.174003 0.0661967 0)
(-0.175777 0.0697467 0)
(-0.177644 0.0710999 0)
(-0.180062 0.0711753 0)
(-0.183023 0.0708792 0)
(-0.18631 0.0703871 0)
(-0.189718 0.0694885 0)
(-0.193092 0.0679517 0)
(-0.196307 0.0656367 0)
(-0.199261 0.0624448 0)
(-0.201858 0.0582779 0)
(-0.204003 0.053078 0)
(-0.205602 0.0469592 0)
(-0.206558 0.0403536 0)
(-0.206761 0.034031 0)
(-0.206035 0.0289202 0)
(-0.2041 0.0258197 0)
(-0.200395 0.0251062 0)
(-0.193718 0.0262259 0)
(-0.184721 0.0277867 0)
(-0.172596 0.030095 0)
(-0.154878 0.0334604 0)
(-0.128418 0.0362125 0)
(-0.0882286 0.0361727 0)
(-0.0260917 0.039746 0)
(0.170096 0.0728647 0)
(-0.369843 0.103192 0)
(1.14633 -0.0111433 0)
(-0.294229 -0.322555 0)
(-0.352542 -0.233735 0)
(-0.351855 -0.149371 0)
(-0.328143 -0.107922 0)
(-0.296394 -0.0992605 0)
(-0.268931 -0.101406 0)
(-0.248892 -0.10713 0)
(-0.235404 -0.11494 0)
(-0.226569 -0.124915 0)
(-0.220723 -0.137384 0)
(-0.216709 -0.152135 0)
(-0.21382 -0.167626 0)
(-0.21181 -0.181171 0)
(-0.210831 -0.190184 0)
(-0.211136 -0.194856 0)
(-0.212581 -0.196334 0)
(-0.214821 -0.196056 0)
(-0.217533 -0.194911 0)
(-0.220598 -0.193214 0)
(-0.224085 -0.190952 0)
(-0.228166 -0.187949 0)
(-0.233038 -0.183959 0)
(-0.238913 -0.178726 0)
(-0.246008 -0.172019 0)
(-0.254505 -0.16366 0)
(-0.26442 -0.153561 0)
(-0.275397 -0.141761 0)
(-0.286551 -0.128456 0)
(-0.296464 -0.113962 0)
(-0.303368 -0.098602 0)
(-0.305443 -0.0826755 0)
(-0.300818 -0.0666108 0)
(-0.290294 -0.0522526 0)
(-0.275383 -0.0399263 0)
(-0.25596 -0.0291131 0)
(-0.225773 -0.0178522 0)
(-0.175649 0.00425386 0)
(-0.158078 0.0518876 0)
(-0.567116 0.107985 0)
)
;

boundaryField
{
    floor
    {
        type            noSlip;
    }
    ceiling
    {
        type            noSlip;
    }
    sWall
    {
        type            noSlip;
    }
    nWall
    {
        type            noSlip;
    }
    sideWalls
    {
        type            empty;
    }
    glass1
    {
        type            noSlip;
    }
    glass2
    {
        type            noSlip;
    }
    sun
    {
        type            noSlip;
    }
    Table_master
    {
        type            noSlip;
    }
    Table_slave
    {
        type            noSlip;
    }
    inlet
    {
        type            fixedValue;
        value           uniform (0.5 0 0);
    }
    outlet
    {
        type            zeroGradient;
    }
}


// ************************************************************************* //
