/*--------------------------------*- C++ -*----------------------------------*\
  =========                 |
  \\      /  F ield         | OpenFOAM: The Open Source CFD Toolbox
   \\    /   O peration     | Website:  https://openfoam.org
    \\  /    A nd           | Version:  6
     \\/     M anipulation  |
\*---------------------------------------------------------------------------*/
FoamFile
{
    version     2.0;
    format      ascii;
    class       surfaceScalarField;
    location    "5200";
    object      phi;
}
// * * * * * * * * * * * * * * * * * * * * * * * * * * * * * * * * * * * * * //

dimensions      [1 0 -1 0 0 0 0];

internalField   nonuniform List<scalar> 
1482
(
-0.00278648
0.0028519
-0.00343269
0.000646211
-0.00206536
0.00509175
-0.00411537
0.000682677
-0.00294697
0.00152782
-0.00151843
0.00687461
-0.00476125
0.000645878
-0.00378094
0.00151665
-0.00240953
0.00241892
-0.00113146
0.00834535
-0.00532165
0.000560406
-0.00448191
0.00134685
-0.00322334
0.00233046
-0.0019696
0.00325706
-0.000823452
0.00957083
-0.00577713
0.000455479
-0.00507186
0.00115036
-0.00384986
0.00197336
-0.00263567
0.00299653
-0.00161211
0.00404572
-0.000588006
0.0106142
-0.00611438
0.000337251
-0.00555468
0.000938304
-0.00436119
0.00166169
-0.00311985
0.00245755
-0.00208126
0.00346568
-0.00134767
0.00480538
-0.000546849
0.0116619
-0.00631895
0.000204568
-0.00592694
0.000709503
-0.00477116
0.00134827
-0.00351068
0.00205252
-0.00240197
0.00277825
-0.00158717
0.00370518
-0.00126032
0.00551885
-0.000524628
0.0127297
-0.00637243
5.34813e-05
-0.00618074
0.000458376
-0.00508224
0.00102058
-0.00382051
0.0016581
-0.00265358
0.00230413
-0.00174566
0.00293675
-0.00117283
0.00361769
-0.00109868
0.0060929
0.00291796
0.0104062
-0.00624833
-0.000124098
-0.00630522
0.00017796
-0.00529265
0.000668786
-0.00405383
0.00125389
-0.00284449
0.00184901
-0.00185616
0.00241463
-0.00116827
0.00293218
-0.000689175
0.00320819
0.00193894
0.00707192
0.00407532
0.00647305
-0.00591261
-0.000335723
-0.00629243
-0.000136897
-0.00539829
0.000283599
-0.00421167
0.000826621
-0.00298016
0.00138957
-0.00192344
0.00191629
-0.00115132
0.00239769
-0.000602793
0.0028458
0.000810795
0.00433633
0.00367015
0.00747709
0.00248666
0.00415253
-0.00532696
-0.000585653
-0.00613897
-0.000489175
-0.00539354
-0.000141643
-0.00429055
0.000362478
-0.00306421
0.000910674
-0.00195312
0.00141925
-0.00111093
0.00187589
-0.000515983
0.00231088
0.000359206
0.00329739
0.00251184
0.00549464
0.00336671
0.00659705
0.00154165
0.00280644
-0.00440282
-0.00092414
-0.00582867
-0.000895961
-0.00526894
-0.000613778
-0.0042819
-0.000150287
-0.00309596
0.000394224
-0.00195054
0.000908095
-0.00104852
0.00135683
-0.000402327
0.00176224
0.000239154
0.00243093
0.00186829
0.00394094
0.00328048
0.00558086
0.0028504
0.00528829
0.00224444
0.000789349
-0.00284156
-0.00156126
-0.00534405
-0.00140876
-0.00501475
-0.00115016
-0.00417719
-0.000718492
-0.00306694
-0.000179315
-0.0019191
0.000362784
-0.000967988
0.000827568
-0.00027358
0.00122809
0.000316449
0.00168494
0.00152822
0.002771
0.00305841
0.004163
0.00352029
0.00491097
0.00306551
0.00446722
-0.00154442
0.00258101
-0.00283835
-0.00486626
-0.00203905
-0.00465729
-0.00176622
-0.00397551
-0.00135183
-0.00297055
-0.000814879
-0.00184879
-0.000249626
-0.00087004
0.000264835
-0.000134541
0.000688529
0.00047241
0.00107213
0.00139759
0.00181557
0.00286391
0.0029655
0.00379477
0.00388851
0.00372093
0.00425555
0.00119527
0.00172753
0.00284537
-0.00538512
-0.00231949
-0.00432189
-0.00237445
-0.00369722
-0.00204452
-0.00280471
-0.00151767
-0.00173813
-0.000925532
-0.000735053
-0.000384613
3.91848e-05
9.111e-05
0.000668498
0.000492442
0.0014376
0.00103212
0.0027392
0.00194027
0.00388658
0.00287369
0.00428931
0.00332014
0.00346412
0.0019867
0.00455823
-0.00361821
-0.00176089
-0.00394217
-0.0026992
-0.00336628
-0.00270539
-0.00256756
-0.00228168
-0.00157923
-0.00167657
-0.000579989
-0.0010806
0.000244671
-0.0005901
0.000904384
-0.000144776
0.0016095
0.000320537
0.00272583
0.00104549
0.00391067
0.00191618
0.00461609
0.0025469
0.00449175
0.0022925
0.00490379
0.00164114
-0.00185975
-0.00175227
-0.00294144
-0.00276162
-0.00288268
-0.0031828
-0.00224381
-0.00302914
-0.00136
-0.0025009
-0.000391269
-0.00186529
0.000464183
-0.00130011
0.00115368
-0.000839396
0.00185319
-0.000388464
0.0028193
0.000227073
0.0039466
0.00100956
0.0047896
0.00174266
0.00500935
0.0020293
0.00546849
0.0017278
0.00829128
0.005018
-0.00184385
-0.00169097
-0.00300274
-0.0021765
-0.0034678
-0.0017964
-0.00363021
-0.0010646
-0.00332452
-0.000160504
-0.00273167
0.000704159
-0.00210527
0.00142607
-0.0015725
0.00211742
-0.00110362
0.0029816
-0.000550766
0.00401812
0.000155547
0.00490551
0.000893645
0.0053308
0.00142121
0.00575472
0.00174307
0.00621178
0.00380732
0.00340123
0.00177512
-0.00352077
-0.00151546
-0.00366378
-0.00125496
-0.00400924
-0.000691632
-0.00400317
0.000106973
-0.003592
0.000956097
-0.00298361
0.00170605
-0.00238525
0.00240183
-0.00185691
0.00319173
-0.00131375
0.00412896
-0.000661606
0.00500922
5.18409e-05
0.00556375
0.000660692
0.00601943
0.00115651
0.00600946
0.00194542
0.0041234
0.00308516
-0.00405917
0.00807747
-0.00224317
-0.00158089
-0.00345534
-0.00076299
-0.00415575
-0.000279636
-0.00442123
0.000396293
-0.00429249
0.00119512
-0.00383103
0.00196816
-0.00324572
0.00268465
-0.00266807
0.00343311
-0.00209829
0.0042834
-0.00146819
0.00512856
-0.000780949
0.00576243
-0.000146833
0.0062679
0.000412223
0.00620164
0.000964376
0.00372145
0.0023474
-0.00196756
0.000993596
0.00239026
-0.00730797
-0.00722679
0.00826944
-0.00328575
0.000810937
-0.00237532
-0.00027218
-0.00394615
0.000113694
-0.00454907
0.00068562
-0.00471055
0.00140512
-0.00450248
0.00217974
-0.00404261
0.00292412
-0.0034852
0.00366456
-0.00289952
0.00445704
-0.00227193
0.00525917
-0.00159879
0.00593133
-0.000949826
0.00646462
-0.000343509
0.00632972
0.00028421
0.00339891
0.00128698
-0.00111588
0.00149579
-0.00591024
-0.000322875
-0.00660985
0.00739294
-0.00643141
-0.00777531
0.00455189
0.00240711
0.000971078
-0.00256725
0.000710121
-0.00335762
0.000520206
-0.00435266
0.000950521
-0.00481397
0.0015808
-0.00488622
0.00231801
-0.00464075
0.0030751
-0.00419361
0.00382403
-0.00364469
0.00458777
-0.00303026
0.00534984
-0.00236261
0.00601777
-0.00168521
0.00651465
-0.000999803
0.00623666
-0.000250378
0.0030794
0.000603793
-0.000978522
0.00114968
-0.00496686
0.000552481
-0.00803901
0.00126496
-0.00181737
0.00157329
0.000848946
0.00174306
0.00142241
-0.00219439
0.00117472
-0.00303185
0.00104661
-0.00388401
0.00120755
-0.00460968
0.00171344
-0.00494661
0.00237695
-0.00494516
0.00310999
-0.00467564
0.00385612
-0.00422571
0.00460033
-0.00365727
0.00532172
-0.00300214
0.00594397
-0.00228879
0.00633329
-0.00150381
0.00584377
-0.000606864
0.00265792
0.000171162
-0.00109528
0.000720591
-0.00444028
0.00062316
-0.00743163
0.000587722
0.000996011
0.00117529
0.00141671
0.00125746
0.00183935
-0.0016744
0.00154782
-0.0025675
0.00141938
-0.00340461
0.00148761
-0.00416406
0.00181232
-0.00470855
0.0023622
-0.00493186
0.00302689
-0.00486207
0.0037358
-0.00455533
0.00444366
-0.00406905
0.0051094
-0.00344496
0.0056492
-0.00270737
0.00588095
-0.00183642
0.00516752
-0.000827526
0.00213862
-8.75517e-05
-0.00129273
0.000368633
-0.00419817
0.000478514
-0.00676038
0.00059195
0.000667009
0.00150429
0.000862164
0.001812
0.000844118
0.00218223
-0.00118699
0.00189504
-0.00202162
0.00170524
-0.00285336
0.00169865
-0.00361565
0.00189152
-0.00424325
0.00229048
-0.00463682
0.00284415
-0.00474911
0.00347226
-0.00459854
0.00411014
-0.00422183
0.00469284
-0.00365251
0.00511924
-0.00291501
0.00517801
-0.00200442
0.00428672
-0.000955616
0.00154043
-0.000229348
-0.00152636
0.000146096
-0.00413863
0.000309106
-0.00623961
0.00125896
0.000502819
0.00186364
0.000581228
0.00207489
0.000428351
0.00250194
-0.000748064
0.00219913
-0.00149108
0.0019494
-0.00226578
0.00185122
-0.00300594
0.00192756
-0.00365169
0.00218089
-0.00413365
0.00259078
-0.00438345
0.00309855
-0.00437541
0.0036291
-0.00411751
0.00409994
-0.00362895
0.00439172
-0.00292502
0.00428612
-0.00202314
0.00329768
-0.0010154
0.000880417
-0.000295624
-0.00180371
4.80068e-05
-0.00417848
0.000185931
-0.00589218
0.00176178
0.000331708
0.00211316
0.000340856
0.00216239
0.00289157
-0.000389789
0.00247025
-0.00101918
0.00215893
-0.00170062
0.00196724
-0.00238179
0.00192642
-0.00300479
0.00204032
-0.00351111
0.00229706
-0.00383994
0.00265681
-0.00394171
0.00305038
-0.0037967
0.0033858
-0.00340339
0.00353612
-0.00277337
0.00328789
-0.00192681
0.00226921
-0.000994687
0.000164879
-0.000299885
-0.00213021
3.08678e-05
-0.00425268
0.000122152
-0.00567025
0.00209349
0.000196759
0.00225726
0.00011265
0.00204989
0.00310939
-0.000217969
0.00272352
-0.000643059
0.00233775
-0.001198
0.00205859
-0.00179197
0.00190379
-0.00235916
0.00188206
-0.00284654
0.00198648
-0.00320053
0.00218808
-0.00337121
0.00242715
-0.00331848
0.00261475
-0.00302565
0.0026228
-0.00249008
0.00226533
-0.00175083
0.00125398
-0.000911598
-0.000566921
-0.000262908
-0.00248151
5.13946e-05
-0.00432246
0.000100572
-0.00551323
0.00229025
8.90915e-05
0.00228082
4.24961e-05
0.00200755
0.00320798
-9.87468e-05
0.00287308
-0.000367531
0.00247709
-0.000782403
0.00213088
-0.00127029
0.00187313
-0.00176131
0.00172298
-0.00220008
0.00168118
-0.00254124
0.00172576
-0.00273819
0.00180809
-0.00275215
0.001844
-0.00254773
0.00172045
-0.00212331
0.00127148
-0.00149625
0.000289769
-0.000786643
-0.00125078
-0.000227773
-0.0028221
7.764e-05
-0.00436961
9.84531e-05
-0.0053781
0.00237934
3.31424e-05
0.00229017
1.76006e-05
0.0019901
0.00321158
-3.75409e-06
0.00293587
-0.000161539
0.00256125
-0.000451687
0.00218119
-0.000832713
0.00184284
-0.00124
0.00157876
-0.00161708
0.0014013
-0.0019202
0.00129975
-0.00211522
0.00123072
-0.00216082
0.00112741
-0.00203555
0.000880211
-0.0017075
0.000359435
-0.00121127
-0.000559659
-0.000646838
-0.00183587
-0.000201587
-0.00313205
8.21267e-05
-0.00438967
9.76159e-05
-0.00524479
0.00241248
1.08254e-05
0.00229694
4.73198e-06
0.00198552
0.00313146
7.99686e-05
0.0029258
6.3219e-06
0.00258947
-0.000189761
0.00220567
-0.000476169
0.00181504
-0.000804915
0.00145966
-0.0011209
0.00116538
-0.00138116
0.000932206
-0.00155266
0.000733804
-0.00161831
0.000502462
-0.00153587
0.000155994
-0.00131134
-0.000397864
-0.000950203
-0.00122189
-0.000549056
-0.00228394
-0.000198809
-0.00338864
5.49499e-05
-0.00439273
8.51067e-05
-0.00511159
0.00242331
7.19355e-08
0.0023016
-4.62301e-06
0.0019903
0.00296974
0.000161566
0.00285024
0.000155528
0.00256753
2.82611e-05
0.00220114
-0.000185232
0.00178749
-0.000448623
0.0013693
-0.00071455
0.000983198
-0.000938722
0.000645312
-0.00109427
0.000337977
-0.00115683
1.51602e-05
-0.001131
-0.000388461
-0.000991417
-0.000937954
-0.000771249
-0.0016743
-0.000497809
-0.00260063
-0.000232385
-0.00357883
-8.64537e-06
-0.00439149
5.366e-05
-0.00499005
0.00242338
-7.27068e-06
0.00230425
-1.38508e-05
0.00200431
0.00271934
0.000250247
0.00271291
0.000298897
0.0025009
0.000222162
0.00216804
6.13659e-05
0.00175562
-0.000153361
0.00130432
-0.000383651
0.000856174
-0.000587527
0.000442215
-0.000735626
6.31238e-05
-0.000819413
-0.000311912
-0.000829759
-0.000734013
-0.000785449
-0.00126388
-0.000665484
-0.00195744
-0.000488098
-0.00280574
-0.000292698
-0.00370158
-0.000109635
-0.00440128
1.13099e-06
-0.0048992
0.00241611
-1.44632e-05
0.00230486
-2.90526e-05
0.00203351
0.00235723
0.000361953
0.00251351
0.000449641
0.00239422
0.000405577
0.00210974
0.000280463
0.00171659
0.000100399
0.00125726
-0.000106298
0.000776292
-0.000303769
0.000315122
-0.000460433
-0.000105652
-0.000566849
-0.000502247
-0.000629076
-0.000924026
-0.00063974
-0.00145037
-0.000598946
-0.0021244
-0.000498496
-0.00293446
-0.000359333
-0.00377994
-0.000214279
-0.00442499
-8.58664e-05
-0.00486038
0.00240164
-2.63557e-05
0.00230217
-6.44872e-05
0.00209816
0.00182405
0.000533029
0.0022507
0.000624761
0.0022526
0.000591263
0.0020308
0.000484513
0.00167068
0.000326372
0.00122202
0.000135642
0.000731352
-6.13578e-05
0.000246053
-0.0002347
-0.000198146
-0.000367938
-0.000605874
-0.00046322
-0.00103175
-0.000521348
-0.00155242
-0.000537673
-0.00222223
-0.000501072
-0.00301977
-0.000413116
-0.00383709
-0.000302077
-0.00446854
-0.00017061
-0.00490842
0.00237529
-5.27149e-05
0.0022904
-0.000177646
0.00227596
-0.000854911
0.00167039
0.00100857
0.00193476
0.000848975
0.00208439
0.000792969
0.00193736
0.000684704
0.00161957
0.00053562
0.00119466
0.000353732
0.000711022
0.000155971
0.000217571
-3.28758e-05
-0.0002423
-0.000190546
-0.00066225
-0.00031156
-0.00109211
-0.000402848
-0.00161014
-0.000463605
-0.00228043
-0.000479425
-0.00308034
-0.0004404
-0.00388641
-0.000363666
-0.0045325
-0.000237955
-0.00504137
0.00232257
-0.000114341
0.00222709
-0.00049296
0.00191401
-0.00128498
0.00132516
0.00163021
0.0017092
0.00123413
0.00190593
0.00102743
0.00183896
0.00089137
0.0015668
0.000737476
0.00117232
0.000557961
0.000706701
0.000358053
0.000216597
0.000156945
-0.000254125
-2.10505e-05
-0.000689089
-0.000163707
-0.00112572
-0.000277945
-0.0016425
-0.000370474
-0.00231495
-0.000429038
-0.00312453
-0.000435149
-0.00393276
-0.0003939
-0.00461419
-0.000281794
-0.00524209
0.00220823
-0.000234728
0.00196886
-0.000830809
0.00145983
-0.00173402
0.000783032
0.00227615
0.00155041
0.00178899
0.00179626
0.0013438
0.00175175
0.00111464
0.00151907
0.000939102
0.00115451
0.000755286
0.000711829
0.000552833
0.000233189
0.00034146
-0.000242475
0.000145295
-0.000692931
-1.72088e-05
-0.00114113
-0.000148299
-0.00165895
-0.000261488
-0.00233337
-0.000352037
-0.00315609
-0.000397414
-0.00397693
-0.000390856
-0.00470781
-0.00030012
-0.00548734
0.00197351
-0.000385371
0.00152342
-0.00110186
0.000827676
-0.00288844
0.00370708
0.00136373
0.00246284
0.00183699
0.00174827
0.00172025
0.0013753
0.00148791
0.0011458
0.00114388
0.000949728
0.000722752
0.000744363
0.000260554
0.000525468
-0.000213253
0.000312239
-0.000676283
0.000128646
-0.00113993
-1.84135e-05
-0.00166356
-0.000143703
-0.00234005
-0.000254815
-0.00317669
-0.000331418
-0.00401845
-0.000355835
-0.00480507
-0.00029348
-0.00575176
0.00158813
-0.000514986
0.000936544
-0.00203376
0.00237754
0.00269326
0.00203542
0.0022644
0.00179002
0.0016785
0.00149737
0.00136584
0.00114678
0.00114289
0.000738126
0.000934355
0.000293742
0.000711175
-0.000170883
0.000483097
-0.000640541
0.000276497
-0.00112037
0.000109087
-0.00165655
-2.54367e-05
-0.0023377
-0.000146084
-0.00318711
-0.000244438
-0.00405671
-0.000293183
-0.0048965
-0.000264396
-0.00601042
0.00107315
-0.00107975
0.00133284
0.00108113
0.00227165
0.00245704
0.00198068
0.00207374
0.00157557
0.0016003
0.00117656
0.00133606
0.000758221
0.0011228
0.000328012
0.000900085
-0.000120377
0.000660668
-0.000587655
0.000430211
-0.00108012
0.000236245
-0.00163466
8.71918e-05
-0.00232743
-3.5752e-05
-0.00318773
-0.000145553
-0.00409109
-0.000210173
-0.00497315
-0.000216627
-0.00624081
0.00189436
-0.000531346
0.00175592
0.00159686
0.00221492
0.00222281
0.00176905
0.00188025
0.00125141
0.00152546
0.0007855
0.00130878
0.000357532
0.00109328
-6.90113e-05
0.000848718
-0.000521877
0.00059489
-0.00101827
0.000368354
-0.00159282
0.000194402
-0.00230744
6.71745e-05
-0.00317948
-4.41179e-05
-0.00412008
-0.000116744
-0.00502847
-0.000155044
-0.00642405
0.00201675
0.000810061
0.000414519
0.00221533
0.00159644
0.00203174
0.00196012
0.00140999
0.00172167
0.000819936
0.00149102
0.000375242
0.00129107
-2.84637e-05
0.00105273
-0.000451265
0.000778105
-0.000936726
0.000513349
-0.00152709
0.000302625
-0.00227269
0.000159631
-0.00316464
5.2239e-05
-0.00413901
-2.5412e-05
-0.00505923
-8.62576e-05
-0.00654613
0.00292665
0.00166261
0.000967246
0.00212868
0.0014995
0.00162829
0.00174183
0.000839553
0.00170205
0.000369515
0.00149675
-1.79198e-05
0.00128053
-0.000390101
0.000991565
-0.00084127
0.000682647
-0.00143601
0.000422266
-0.00221772
0.000247665
-0.00314187
0.000136815
-0.0041382
5.12452e-05
-0.00506582
-1.91346e-05
-0.00659966
0.00469481
0.00166484
0.00143109
0.00173082
0.00139696
0.000551755
0.00202959
0.000277327
0.00179424
-7.23222e-05
0.00155116
-0.000364377
0.00125481
-0.000742878
0.000893168
-0.00132065
0.000567284
-0.00213727
0.000341834
-0.00310555
0.000211369
-0.00411447
0.000112971
-0.00504545
3.06087e-05
-0.00658618
0.00673638
0.000374073
0.00278786
-0.00065204
0.00260052
-0.000123798
0.00243053
-0.00027345
0.0019954
-0.000422402
0.00160922
-0.000659607
0.00117153
-0.00118386
0.000756356
-0.00202476
0.00045479
-0.00304826
0.000284622
-0.00407011
0.000166995
-0.00499255
5.9871e-05
-0.00652304
0.00750579
-0.00191099
0.00404674
-0.000732204
0.00320856
-0.000757794
0.00291482
-0.00062204
0.00219522
-0.000616175
0.0015658
-0.00102699
0.0010146
-0.00186984
0.000601408
-0.00295878
0.000365425
-0.0040053
0.000219913
-0.00490855
8.29054e-05
-0.00643077
0.00570174
-0.000955519
0.00426979
-0.0013796
0.00383011
-0.00103017
0.00332331
-0.000603273
0.0021825
-0.000837432
0.00137616
-0.00165516
0.000799805
-0.00281945
0.000462147
-0.00391708
0.000277398
-0.00479411
0.000105506
-0.00631574
0.00486522
-0.00138921
0.00427915
-0.00195075
0.00475091
-0.000478689
0.00319921
-0.000550885
0.00189594
-0.00134859
0.00106936
-0.00260291
0.000583225
-0.00379979
0.000345101
-0.00464667
0.000130103
-0.00617859
0.0036089
-0.00229062
0.00461915
-0.000372529
0.00464518
-2.2864e-05
0.00267141
-0.000876968
0.00142403
-0.00226751
0.000733746
-0.00364426
0.000427903
-0.00445913
0.000157787
-0.00601757
0.0014655
-0.000318164
0.00456523
0.000722636
0.00390004
-0.000104375
0.0018986
-0.00174836
0.000904475
-0.00343143
0.000521038
-0.00421997
0.000189032
-0.0058298
0.0013058
0.0012043
0.00408399
0.00104955
0.0027462
-0.000914024
0.00106375
-0.00313431
0.000607317
-0.00391396
0.000215313
-0.00561194
0.00267455
0.00162006
0.00351363
0.000506865
0.00132489
-0.00283478
0.000763982
-0.0035002
0.000193798
-0.00536911
0.00446829
0.00116945
0.00285073
-0.00292777
0.00141745
-0.00278712
5.10565e-05
-0.00514919
0.00582118
-0.00258946
0.00251193
-0.00129086
-7.8783e-05
-0.00507347
0.00343123
-4.78561e-05
0.00126877
-0.00512921
0.00359435
-0.00383925
)
;

boundaryField
{
    floor
    {
        type            calculated;
        value           nonuniform List<scalar> 
36
(
0
0
0
0
0
0
0
0
0
0
0
0
0
0
0
0
0
0
0
-6.60356e-06
-1.7463e-05
-2.70003e-05
-3.56069e-05
-3.64319e-05
-3.01681e-05
-3.00472e-05
-3.21478e-06
-6.01542e-06
-6.19473e-06
-6.32976e-06
-4.22744e-06
-9.57142e-06
-1.04386e-05
-1.40578e-05
-1.51357e-05
-1.65136e-05
)
;
    }
    ceiling
    {
        type            calculated;
        value           nonuniform List<scalar> 
43
(
-5.41738e-05
-6.20883e-05
-6.22375e-05
-5.90628e-05
-5.47987e-05
-4.79991e-05
-4.22067e-05
-3.83066e-05
-3.60379e-05
-3.49338e-05
-3.46521e-05
-3.49704e-05
-3.56721e-05
-3.65022e-05
-3.72191e-05
-3.76699e-05
-3.77516e-05
-3.75415e-05
-3.70708e-05
-3.63864e-05
-3.55794e-05
-3.47694e-05
-3.40662e-05
-3.35359e-05
-3.31888e-05
-3.29904e-05
-3.28769e-05
-3.2765e-05
-3.25705e-05
-3.22148e-05
-3.16461e-05
-3.08457e-05
-2.98217e-05
-2.86035e-05
-2.72381e-05
-2.57867e-05
-2.43019e-05
-2.27302e-05
-2.09746e-05
-1.97971e-05
1.8677e-05
1.46755e-05
-0.00015834
)
;
    }
    sWall
    {
        type            calculated;
        value           nonuniform List<scalar> 9(-0.000142215 -0.000166143 -0.000195564 -0.000227352 -0.000247239 -0.000283039 -0.000459276 -0.000481836 -0.000498229);
    }
    nWall
    {
        type            calculated;
        value           nonuniform List<scalar> 
14
(
-9.23426e-05
-9.98289e-05
-0.000105542
-0.000106868
-0.000118977
-0.000132921
-0.00014718
-0.000157913
-0.000164141
-0.000173614
-0.000183719
-0.000199878
-0.000211098
-0.000225004
)
;
    }
    sideWalls
    {
        type            empty;
        value           nonuniform 0();
    }
    glass1
    {
        type            calculated;
        value           nonuniform List<scalar> 9(-6.54165e-05 -0.000174484 -0.00026443 -0.000339283 -0.000402027 -0.00045537 -0.000500884 -0.000543155 -0.000594399);
    }
    glass2
    {
        type            calculated;
        value           nonuniform List<scalar> 2(-0.000376711 -0.000395245);
    }
    sun
    {
        type            calculated;
        value           uniform 0;
    }
    Table_master
    {
        type            calculated;
        value           nonuniform List<scalar> 9(-1.54153e-07 -1.54274e-07 -1.54304e-07 -1.54322e-07 -1.54331e-07 -1.54334e-07 -1.54331e-07 -1.54314e-07 -1.54256e-07);
    }
    Table_slave
    {
        type            calculated;
        value           nonuniform List<scalar> 9(1.53828e-07 1.53865e-07 1.53853e-07 1.53868e-07 1.53883e-07 1.53923e-07 1.5399e-07 1.54086e-07 1.54218e-07);
    }
    inlet
    {
        type            calculated;
        value           uniform -0.0116681;
    }
    outlet
    {
        type            calculated;
        value           nonuniform List<scalar> 2(0.00945939 0.0129952);
    }
}


// ************************************************************************* //
