/*--------------------------------*- C++ -*----------------------------------*\
  =========                 |
  \\      /  F ield         | OpenFOAM: The Open Source CFD Toolbox
   \\    /   O peration     | Website:  https://openfoam.org
    \\  /    A nd           | Version:  6
     \\/     M anipulation  |
\*---------------------------------------------------------------------------*/
FoamFile
{
    version     2.0;
    format      ascii;
    class       volScalarField;
    location    "690";
    object      epsilon;
}
// * * * * * * * * * * * * * * * * * * * * * * * * * * * * * * * * * * * * * //

dimensions      [0 2 -3 0 0 0 0];

internalField   nonuniform List<scalar> 
458
(
0.000433353
0.000558684
0.000597435
0.000687355
0.00077778
0.000870408
0.000970171
0.00107896
0.00117368
0.0012359
0.00124296
0.00117634
0.00102341
0.000744558
0.000325403
3.92743e-05
6.32638e-05
9.2216e-05
0.000104573
9.97544e-05
8.17349e-05
6.44893e-05
5.12821e-05
4.14167e-05
3.39498e-05
2.82141e-05
2.37603e-05
2.02265e-05
1.73298e-05
1.48513e-05
1.26124e-05
1.13928e-05
8.84311e-06
0.00106212
0.00158437
0.000519211
0.000503394
0.000519298
0.000551862
0.000607347
0.000689725
0.000781127
0.000855425
0.000883482
0.000849101
0.000757965
0.000624733
0.000502641
0.000748589
0.000427522
0.00023216
3.83203e-05
7.54078e-05
9.28728e-05
9.3589e-05
8.98972e-05
9.02014e-05
7.06813e-05
5.35761e-05
4.08643e-05
3.1577e-05
2.47703e-05
1.9745e-05
1.59846e-05
1.31817e-05
1.14164e-05
1.06964e-05
3.04695e-05
2.0068e-05
0.00190884
0.00384922
0.000604552
0.000458977
0.000466781
0.000509044
0.00058154
0.000684993
0.000798683
0.000886048
0.000919723
0.000889495
0.000803321
0.000668168
0.000518484
0.000417176
0.000353754
0.000382729
0.00013985
0.000139284
0.000125723
0.000111708
0.00010373
0.000198516
0.000133196
9.1275e-05
6.46173e-05
4.73444e-05
3.58513e-05
2.80129e-05
2.25817e-05
1.888e-05
1.48367e-05
1.31328e-05
6.48204e-05
3.3113e-05
0.00306511
0.00799638
0.000904842
0.000439589
0.000429872
0.00048205
0.000576049
0.00071942
0.000864449
0.000959957
0.000991237
0.000954772
0.000856757
0.00070455
0.000549509
0.000433215
0.000366621
0.000381193
0.000585071
0.000376516
0.000245645
0.000178662
0.000140795
0.000123298
0.000283907
0.000218661
0.000180478
0.000155336
0.00013599
0.000118426
0.000103214
8.86209e-05
7.33895e-05
4.54373e-05
2.93074e-05
0.000114575
5.0595e-05
0.00465253
0.0144293
0.00174205
0.000471551
0.000396255
0.000452435
0.000590233
0.000834824
0.00102058
0.00111397
0.00113056
0.00107124
0.000939107
0.000754974
0.000565831
0.000420863
0.000332349
0.000303285
0.000304393
0.000254118
0.000209847
0.000175548
0.000146683
0.000122401
0.00011336
0.000104061
9.77445e-05
9.23666e-05
8.63421e-05
7.88858e-05
7.09798e-05
6.32314e-05
5.59582e-05
4.60636e-05
3.62088e-05
7.47271e-05
0.000114528
0.000120923
0.000143469
0.000184242
0.00687519
0.021737
0.00400497
0.000792107
0.000466075
0.000475219
0.00070316
0.0011228
0.00130884
0.00136851
0.00134621
0.00124858
0.00106916
0.000826595
0.000578611
0.000389479
0.000279456
0.000239099
0.000228795
0.00021879
0.000201663
0.000177252
0.000149724
0.000124101
0.000107595
0.000101114
9.99085e-05
9.94721e-05
9.73073e-05
9.17467e-05
8.17776e-05
7.05033e-05
5.9849e-05
5.01802e-05
4.34645e-05
5.55232e-05
8.83233e-05
0.000106095
0.00020665
0.000205575
0.0096621
0.0261967
0.00880013
0.00280478
0.00145753
0.00114448
0.00148765
0.00173042
0.00178933
0.00175239
0.00165304
0.00148642
0.00123218
0.000909577
0.000589171
0.000356582
0.000235085
0.000200781
0.000202955
0.000203601
0.000190591
0.000167347
0.000141742
0.000120507
0.000109288
0.000108707
0.000113775
0.000120236
0.000125786
0.00012822
0.000124137
0.00011113
9.75379e-05
8.59896e-05
8.05023e-05
8.8768e-05
0.000120617
0.000176801
0.000327318
0.000344831
0.0104496
0.0300912
0.016096
0.00965628
0.00597556
0.00418726
0.00338889
0.00288018
0.00254196
0.0022851
0.00204309
0.00176452
0.00139964
0.000969765
0.000562085
0.000301
0.000190891
0.000174909
0.000180173
0.00017764
0.000162668
0.000142337
0.00012441
0.000113736
0.000112364
0.000119148
0.000131229
0.00014689
0.000165754
0.000187729
0.000212025
0.00023296
0.000246073
0.000273228
0.000329207
0.000480194
0.000820538
0.00137751
0.00410913
0.00128178
0.00984534
0.0172576
0.0132413
0.00999093
0.00750931
0.00579594
0.00459213
0.00379401
0.00325525
0.00282864
0.00243196
0.00201056
0.00148611
0.00091499
0.000407217
0.000216415
0.000159233
0.000147899
0.000144813
0.000137254
0.000124865
0.000112687
0.000105104
0.00010419
0.000109997
0.000121542
0.000138073
0.00015989
0.00018835
0.000225701
0.000275012
0.000339904
0.000427231
0.000551929
0.000733959
0.000976571
0.00125071
0.0014983
0.00170306
0.00104482
0.00347772
0.00471908
0.00512317
0.00503052
0.00473734
0.00432571
0.00379023
0.00316507
0.0025537
0.0019518
0.00116352
0.000536193
0.000254326
0.000159623
0.00012916
0.0001182
0.000110919
0.000103079
9.54098e-05
8.99019e-05
8.83564e-05
9.12076e-05
9.80647e-05
0.000108522
0.00012258
0.000140818
0.000164484
0.000195699
0.000237931
0.000296954
0.000378413
0.000488535
0.000629881
0.000786368
0.000911224
0.000944775
0.000871283
0.000544309
0.00289533
0.00862759
0.008292
0.00718362
0.00608578
0.0047985
0.00348524
0.00225971
0.00128513
0.000710583
0.000374939
0.000214989
0.000150822
0.00012371
0.000110616
0.000101725
9.3745e-05
8.66055e-05
8.13067e-05
7.8585e-05
7.87052e-05
8.17761e-05
8.776e-05
9.68383e-05
0.000109532
0.000126749
0.000149882
0.000181006
0.00022308
0.00027987
0.000356503
0.000458181
0.000585726
0.000728514
0.000841927
0.00095612
0.00073378
0.000565818
0.00336901
0.00362505
0.00386843
0.00532776
0.00449952
0.0031318
0.00188223
0.00116125
0.000826152
0.000573791
0.000399064
0.000290171
0.000215119
0.000167854
0.000139487
0.000120924
0.000107246
9.63354e-05
8.79088e-05
8.25142e-05
8.05637e-05
8.20302e-05
8.64945e-05
9.334e-05
0.00010249
0.000114081
0.000128457
0.000146205
0.000168284
0.00019633
0.000231845
0.000276163
0.000331446
0.000400366
0.000485938
0.000603576
0.000660481
0.00062071
0.0004995
0.000395173
)
;

boundaryField
{
    floor
    {
        Cmu             0.09;
        kappa           0.41;
        E               9.8;
        type            epsilonWallFunction;
        value           nonuniform List<scalar> 
36
(
0.000325403
3.92743e-05
6.32638e-05
9.2216e-05
0.000104573
9.97544e-05
8.17349e-05
6.44893e-05
5.12821e-05
4.14167e-05
3.39498e-05
2.82141e-05
2.37603e-05
2.02265e-05
1.73298e-05
1.48513e-05
1.26124e-05
1.13928e-05
8.84311e-06
8.84311e-06
2.0068e-05
3.3113e-05
5.0595e-05
0.000120923
0.000143469
0.000184242
0.000325403
0.000748589
0.000427522
0.00023216
3.92743e-05
0.00023216
3.83203e-05
0.000382729
0.00013985
0.000585071
)
;
    }
    ceiling
    {
        Cmu             0.09;
        kappa           0.41;
        E               9.8;
        type            epsilonWallFunction;
        value           nonuniform List<scalar> 
43
(
0.00336901
0.00362505
0.00386843
0.00532776
0.00449952
0.0031318
0.00188223
0.00116125
0.000826152
0.000573791
0.000399064
0.000290171
0.000215119
0.000167854
0.000139487
0.000120924
0.000107246
9.63354e-05
8.79088e-05
8.25142e-05
8.05637e-05
8.20302e-05
8.64945e-05
9.334e-05
0.00010249
0.000114081
0.000128457
0.000146205
0.000168284
0.00019633
0.000231845
0.000276163
0.000331446
0.000400366
0.000485938
0.000603576
0.000660481
0.00062071
0.0004995
0.000395173
0.00984534
0.0172576
0.00289533
)
;
    }
    sWall
    {
        Cmu             0.09;
        kappa           0.41;
        E               9.8;
        type            epsilonWallFunction;
        value           uniform 0.00336901;
    }
    nWall
    {
        Cmu             0.09;
        kappa           0.41;
        E               9.8;
        type            epsilonWallFunction;
        value           nonuniform List<scalar> 6(0.000184242 0.000205575 0.000344831 0.000544309 0.000565818 0.000395173);
    }
    sideWalls
    {
        type            empty;
    }
    glass1
    {
        Cmu             0.09;
        kappa           0.41;
        E               9.8;
        type            epsilonWallFunction;
        value           nonuniform List<scalar> 9(0.000433353 0.00106212 0.00190884 0.00306511 0.00465253 0.00687519 0.0096621 0.0104496 0.00984534);
    }
    glass2
    {
        Cmu             0.09;
        kappa           0.41;
        E               9.8;
        type            epsilonWallFunction;
        value           nonuniform List<scalar> 2(0.00128178 0.00104482);
    }
    sun
    {
        Cmu             0.09;
        kappa           0.41;
        E               9.8;
        type            epsilonWallFunction;
        value           nonuniform List<scalar> 
14
(
0.000433353
0.000558684
0.000597435
0.000687355
0.00077778
0.000870408
0.000970171
0.00107896
0.00117368
0.0012359
0.00124296
0.00117634
0.00102341
0.000744558
)
;
    }
    Table_master
    {
        Cmu             0.09;
        kappa           0.41;
        E               9.8;
        type            epsilonWallFunction;
        value           nonuniform List<scalar> 9(0.000198516 0.000133196 9.1275e-05 6.46173e-05 4.73444e-05 3.58513e-05 2.80129e-05 2.25817e-05 1.888e-05);
    }
    Table_slave
    {
        Cmu             0.09;
        kappa           0.41;
        E               9.8;
        type            epsilonWallFunction;
        value           nonuniform List<scalar> 9(0.000283907 0.000218661 0.000180478 0.000155336 0.00013599 0.000118426 0.000103214 8.86209e-05 7.33895e-05);
    }
    inlet
    {
        type            turbulentMixingLengthDissipationRateInlet;
        mixingLength    0.01;
        phi             phi;
        k               k;
        value           uniform 0.000471672;
    }
    outlet
    {
        type            zeroGradient;
    }
}


// ************************************************************************* //
