/*--------------------------------*- C++ -*----------------------------------*\
  =========                 |
  \\      /  F ield         | OpenFOAM: The Open Source CFD Toolbox
   \\    /   O peration     | Website:  https://openfoam.org
    \\  /    A nd           | Version:  6
     \\/     M anipulation  |
\*---------------------------------------------------------------------------*/
FoamFile
{
    version     2.0;
    format      ascii;
    class       volScalarField;
    location    "690";
    object      T;
}
// * * * * * * * * * * * * * * * * * * * * * * * * * * * * * * * * * * * * * //

dimensions      [0 0 0 1 0 0 0];

internalField   nonuniform List<scalar> 
458
(
302.739
302.461
302.448
302.444
302.441
302.437
302.434
302.429
302.423
302.414
302.406
302.402
302.405
302.419
302.462
302.603
302.581
302.573
302.579
302.586
302.591
302.597
302.602
302.607
302.613
302.618
302.623
302.628
302.633
302.638
302.644
302.651
302.675
302.926
302.494
302.469
302.47
302.471
302.472
302.47
302.464
302.45
302.428
302.404
302.389
302.39
302.404
302.425
302.435
302.445
302.466
302.609
302.559
302.556
302.563
302.573
302.577
302.579
302.581
302.583
302.584
302.586
302.588
302.59
302.593
302.598
302.606
302.617
302.658
303.122
302.539
302.499
302.508
302.521
302.531
302.535
302.531
302.507
302.462
302.414
302.382
302.379
302.399
302.42
302.431
302.44
302.459
302.567
302.547
302.549
302.564
302.582
302.583
302.583
302.583
302.584
302.584
302.585
302.585
302.586
302.587
302.592
302.598
302.609
302.652
303.323
302.597
302.531
302.549
302.578
302.606
302.625
302.626
302.586
302.509
302.427
302.375
302.369
302.396
302.424
302.441
302.448
302.456
302.466
302.484
302.512
302.546
302.58
302.61
302.634
302.65
302.664
302.676
302.685
302.692
302.697
302.701
302.703
302.675
302.646
302.628
302.654
303.52
302.672
302.565
302.581
302.625
302.674
302.718
302.73
302.669
302.554
302.437
302.366
302.36
302.393
302.435
302.462
302.473
302.478
302.493
302.518
302.553
302.592
302.63
302.664
302.693
302.714
302.731
302.743
302.751
302.755
302.755
302.75
302.741
302.719
302.686
302.654
302.656
302.746
302.824
302.826
303.698
302.77
302.619
302.61
302.651
302.71
302.784
302.811
302.722
302.572
302.433
302.354
302.349
302.396
302.455
302.499
302.521
302.532
302.552
302.583
302.621
302.661
302.699
302.731
302.757
302.776
302.79
302.799
302.804
302.804
302.799
302.788
302.774
302.751
302.72
302.685
302.67
302.708
302.738
302.779
303.854
302.933
302.763
302.711
302.72
302.764
302.845
302.847
302.728
302.551
302.399
302.324
302.337
302.407
302.492
302.556
302.591
302.612
302.637
302.668
302.704
302.739
302.772
302.798
302.818
302.832
302.841
302.846
302.846
302.843
302.834
302.819
302.801
302.778
302.75
302.718
302.698
302.705
302.719
302.75
304.085
303.398
303.198
303.056
302.981
302.97
302.98
302.873
302.666
302.45
302.306
302.268
302.329
302.441
302.559
302.638
302.681
302.704
302.728
302.756
302.786
302.814
302.838
302.856
302.867
302.874
302.878
302.877
302.874
302.869
302.86
302.846
302.828
302.808
302.787
302.764
302.752
302.759
302.779
302.931
304.415
304.097
303.849
303.608
303.416
303.281
303.075
302.732
302.403
302.196
302.14
302.207
302.36
302.528
302.674
302.738
302.77
302.79
302.811
302.833
302.854
302.873
302.887
302.896
302.901
302.903
302.902
302.9
302.896
302.892
302.888
302.886
302.887
302.892
302.906
302.93
302.965
303.002
303.031
303.097
297.641
299.355
300.41
300.854
301.016
301.197
301.422
301.693
301.981
302.254
302.531
302.707
302.789
302.825
302.845
302.861
302.877
302.892
302.905
302.914
302.921
302.924
302.925
302.926
302.925
302.925
302.925
302.925
302.926
302.927
302.931
302.939
302.954
302.975
303.002
303.03
303.054
303.077
297.997
299.42
300.269
300.712
301.031
301.375
301.741
302.121
302.452
302.654
302.778
302.843
302.873
302.891
302.904
302.914
302.924
302.932
302.937
302.941
302.943
302.944
302.945
302.945
302.946
302.946
302.947
302.948
302.949
302.95
302.954
302.96
302.97
302.984
303.002
303.024
303.024
303.058
299.472
299.432
299.429
300.46
301.096
301.621
302.098
302.433
302.626
302.757
302.838
302.884
302.913
302.931
302.942
302.95
302.956
302.961
302.964
302.967
302.968
302.968
302.968
302.968
302.968
302.967
302.967
302.966
302.966
302.966
302.966
302.966
302.967
302.97
302.975
302.984
302.995
303.004
303.007
303.048
)
;

boundaryField
{
    floor
    {
        type            wallHeatTransfer;
        Tinf            uniform 305.2;
        alphaWall       uniform 0.24;
        value           nonuniform List<scalar> 
36
(
302.774
303.09
303.022
302.979
302.973
302.983
303.006
303.034
303.061
303.088
303.114
303.138
303.162
303.184
303.206
303.229
303.253
303.271
303.321
303.321
303.209
303.148
303.106
303.102
303.155
303.138
302.774
302.69
302.738
302.805
303.09
302.805
303.098
302.759
302.936
302.735
)
;
    }
    ceiling
    {
        type            wallHeatTransfer;
        Tinf            uniform 303.2;
        alphaWall       uniform 0.24;
        value           nonuniform List<scalar> 
43
(
299.701
299.659
299.653
300.609
301.216
301.721
302.178
302.497
302.677
302.801
302.878
302.921
302.949
302.967
302.979
302.987
302.993
302.998
303.001
303.004
303.005
303.005
303.005
303.004
303.003
303.001
303
302.999
302.997
302.996
302.995
302.994
302.994
302.995
302.998
303.005
303.015
303.023
303.027
303.064
304.359
304.062
298.329
)
;
    }
    sWall
    {
        type            wallHeatTransfer;
        Tinf            uniform 315.2;
        alphaWall       uniform 0.36;
        value           uniform 300.885;
    }
    nWall
    {
        type            wallHeatTransfer;
        Tinf            uniform 307.2;
        alphaWall       uniform 0.36;
        value           nonuniform List<scalar> 6(303.635 303.577 303.461 303.668 303.646 303.691);
    }
    sideWalls
    {
        type            empty;
    }
    glass1
    {
        type            wallHeatTransfer;
        Tinf            uniform 315.2;
        alphaWall       uniform 4.3;
        value           nonuniform List<scalar> 9(311.279 310.631 310.219 309.904 309.64 309.398 309.195 309.255 309.479);
    }
    glass2
    {
        type            wallHeatTransfer;
        Tinf            uniform 307.2;
        alphaWall       uniform 4.3;
        value           nonuniform List<scalar> 2(305.543 305.664);
    }
    sun
    {
        type            wallHeatTransfer;
        Tinf            uniform 305.2;
        alphaWall       uniform 0.24;
        value           nonuniform List<scalar> 
14
(
303.001
302.733
302.717
302.704
302.693
302.683
302.673
302.662
302.651
302.64
302.632
302.631
302.643
302.676
)
;
    }
    Table_master
    {
        type            zeroGradient;
    }
    Table_slave
    {
        type            zeroGradient;
    }
    inlet
    {
        type            fixedValue;
        value           uniform 295.15;
    }
    outlet
    {
        type            zeroGradient;
    }
}


// ************************************************************************* //
