/*--------------------------------*- C++ -*----------------------------------*\
  =========                 |
  \\      /  F ield         | OpenFOAM: The Open Source CFD Toolbox
   \\    /   O peration     | Website:  https://openfoam.org
    \\  /    A nd           | Version:  6
     \\/     M anipulation  |
\*---------------------------------------------------------------------------*/
FoamFile
{
    version     2.0;
    format      ascii;
    class       volScalarField;
    location    "660";
    object      T;
}
// * * * * * * * * * * * * * * * * * * * * * * * * * * * * * * * * * * * * * //

dimensions      [0 0 0 1 0 0 0];

internalField   nonuniform List<scalar> 
458
(
301.771
301.471
301.456
301.452
301.449
301.445
301.441
301.436
301.429
301.423
301.423
301.436
301.47
301.487
301.513
301.752
301.724
301.716
301.73
301.74
301.748
301.755
301.762
301.768
301.775
301.781
301.787
301.793
301.8
301.806
301.813
301.822
301.852
301.967
301.499
301.47
301.469
301.469
301.467
301.464
301.452
301.432
301.411
301.405
301.424
301.462
301.485
301.5
301.51
301.52
301.546
301.76
301.697
301.696
301.712
301.729
301.735
301.738
301.74
301.742
301.745
301.747
301.749
301.752
301.756
301.761
301.77
301.784
301.833
302.176
301.545
301.499
301.507
301.517
301.524
301.524
301.504
301.459
301.409
301.389
301.413
301.465
301.499
301.512
301.519
301.524
301.544
301.705
301.68
301.689
301.718
301.748
301.748
301.747
301.747
301.748
301.748
301.748
301.749
301.749
301.75
301.756
301.763
301.776
301.828
302.391
301.605
301.534
301.553
301.584
301.609
301.619
301.588
301.504
301.413
301.371
301.401
301.47
301.519
301.541
301.543
301.542
301.546
301.559
301.588
301.637
301.693
301.748
301.793
301.829
301.853
301.871
301.886
301.898
301.906
301.913
301.917
301.919
301.873
301.829
301.803
301.834
302.604
301.684
301.572
301.595
301.647
301.702
301.735
301.689
301.554
301.416
301.353
301.39
301.474
301.546
301.581
301.585
301.58
301.579
301.597
301.637
301.695
301.759
301.819
301.87
301.911
301.939
301.959
301.974
301.983
301.986
301.984
301.977
301.964
301.931
301.882
301.837
301.838
301.967
302.049
302.049
302.8
301.788
301.627
301.628
301.685
301.765
301.841
301.766
301.583
301.411
301.337
301.379
301.485
301.585
301.639
301.652
301.648
301.65
301.679
301.73
301.792
301.855
301.912
301.959
301.994
302.018
302.034
302.043
302.047
302.044
302.035
302.021
302.001
301.971
301.926
301.876
301.856
301.914
301.947
301.996
302.971
301.96
301.771
301.725
301.753
301.832
301.9
301.789
301.57
301.379
301.308
301.374
301.513
301.645
301.719
301.743
301.744
301.756
301.794
301.848
301.906
301.962
302.009
302.045
302.07
302.085
302.093
302.096
302.093
302.087
302.073
302.054
302.031
302.002
301.964
301.92
301.893
301.906
301.923
301.957
303.222
302.467
302.236
302.079
302.019
302.055
301.984
301.747
301.466
301.28
301.256
301.383
301.575
301.738
301.824
301.85
301.86
301.88
301.921
301.97
302.019
302.06
302.092
302.113
302.125
302.131
302.132
302.129
302.123
302.114
302.102
302.083
302.061
302.036
302.008
301.978
301.962
301.974
302.004
302.19
303.581
303.23
302.94
302.667
302.47
302.309
301.919
301.47
301.167
301.088
301.202
301.45
301.706
301.873
301.935
301.962
301.98
302.006
302.041
302.077
302.109
302.133
302.149
302.158
302.161
302.161
302.158
302.153
302.147
302.141
302.136
302.134
302.135
302.143
302.161
302.192
302.237
302.284
302.318
302.396
296.311
298.225
299.262
299.571
299.792
300.086
300.466
300.883
301.289
301.701
301.912
302.005
302.046
302.068
302.088
302.11
302.134
302.155
302.171
302.181
302.186
302.188
302.187
302.186
302.185
302.183
302.182
302.182
302.183
302.185
302.19
302.2
302.218
302.245
302.279
302.313
302.34
302.363
296.598
298.266
299.084
299.529
299.964
300.504
301.063
301.548
301.823
301.989
302.073
302.113
302.136
302.153
302.168
302.182
302.195
302.204
302.209
302.212
302.213
302.212
302.211
302.21
302.209
302.209
302.209
302.209
302.21
302.212
302.216
302.224
302.237
302.256
302.279
302.306
302.306
302.342
298.072
298.033
298.03
299.301
300.111
300.865
301.477
301.77
301.957
302.065
302.126
302.168
302.196
302.214
302.226
302.236
302.243
302.249
302.253
302.255
302.256
302.255
302.254
302.253
302.251
302.249
302.247
302.245
302.243
302.241
302.24
302.239
302.239
302.241
302.246
302.259
302.272
302.283
302.288
302.329
)
;

boundaryField
{
    floor
    {
        type            wallHeatTransfer;
        Tinf            uniform 305.2;
        alphaWall       uniform 0.24;
        value           nonuniform List<scalar> 
36
(
301.927
302.364
302.277
302.224
302.222
302.237
302.267
302.301
302.334
302.367
302.398
302.428
302.457
302.485
302.512
302.541
302.571
302.594
302.657
302.657
302.519
302.445
302.397
302.408
302.465
302.442
301.927
301.861
301.912
301.989
302.364
301.989
302.376
301.952
302.187
301.937
)
;
    }
    ceiling
    {
        type            wallHeatTransfer;
        Tinf            uniform 303.2;
        alphaWall       uniform 0.24;
        value           nonuniform List<scalar> 
43
(
298.37
298.328
298.32
299.501
300.283
301.016
301.61
301.891
302.07
302.173
302.232
302.273
302.301
302.32
302.333
302.343
302.351
302.358
302.364
302.368
302.37
302.371
302.37
302.37
302.368
302.366
302.363
302.36
302.356
302.351
302.347
302.342
302.339
302.337
302.337
302.344
302.354
302.365
302.374
302.417
303.564
303.229
296.994
)
;
    }
    sWall
    {
        type            wallHeatTransfer;
        Tinf            uniform 315.2;
        alphaWall       uniform 0.36;
        value           uniform 299.527;
    }
    nWall
    {
        type            wallHeatTransfer;
        Tinf            uniform 307.2;
        alphaWall       uniform 0.36;
        value           nonuniform List<scalar> 6(302.957 302.89 302.751 303.028 303.003 303.031);
    }
    sideWalls
    {
        type            empty;
    }
    glass1
    {
        type            wallHeatTransfer;
        Tinf            uniform 315.2;
        alphaWall       uniform 4.3;
        value           nonuniform List<scalar> 9(310.828 310.139 309.709 309.385 309.119 308.876 308.669 308.736 308.98);
    }
    glass2
    {
        type            wallHeatTransfer;
        Tinf            uniform 307.2;
        alphaWall       uniform 4.3;
        value           nonuniform List<scalar> 2(305.18 305.346);
    }
    sun
    {
        type            wallHeatTransfer;
        Tinf            uniform 305.2;
        alphaWall       uniform 0.24;
        value           nonuniform List<scalar> 
14
(
302.119
301.824
301.804
301.788
301.773
301.759
301.746
301.732
301.719
301.711
301.713
301.733
301.793
301.854
)
;
    }
    Table_master
    {
        type            zeroGradient;
    }
    Table_slave
    {
        type            zeroGradient;
    }
    inlet
    {
        type            fixedValue;
        value           uniform 293.15;
    }
    outlet
    {
        type            zeroGradient;
    }
}


// ************************************************************************* //
