/*--------------------------------*- C++ -*----------------------------------*\
  =========                 |
  \\      /  F ield         | OpenFOAM: The Open Source CFD Toolbox
   \\    /   O peration     | Website:  https://openfoam.org
    \\  /    A nd           | Version:  6
     \\/     M anipulation  |
\*---------------------------------------------------------------------------*/
FoamFile
{
    version     2.0;
    format      ascii;
    class       volScalarField;
    location    "33899.9999979192144";
    object      alphat;
}
// * * * * * * * * * * * * * * * * * * * * * * * * * * * * * * * * * * * * * //

dimensions      [1 -1 -1 0 0 0 0];

internalField   nonuniform List<scalar> 
778
(
0.001041
0.00111057
0.0011066
0.00115465
0.00119869
0.00123868
0.0012759
0.00131178
0.0013479
0.00138627
0.00142286
0.00145762
0.00149187
0.00152871
0.00156716
0.000736718
0.00105544
0.00106389
0.00103807
0.000994937
0.000937381
0.000880071
0.000827292
0.000779697
0.000737003
0.000698945
0.000664756
0.000633611
0.000604544
0.000576258
0.000546685
0.000522136
0.000472607
0.00152467
0.00300738
0.00263934
0.00304642
0.00334189
0.00365515
0.00396761
0.00425552
0.00448722
0.00462202
0.00470128
0.0046686
0.00443581
0.00385914
0.00281864
0.00171595
0.00163608
0.00156615
0.00131901
0.00224651
0.00311342
0.00362507
0.00364868
0.00287971
0.00246283
0.00217376
0.00195444
0.0017801
0.00163147
0.00150002
0.00137766
0.00125794
0.00115049
0.00105782
0.00119177
0.000599247
0.00193414
0.00419892
0.00311349
0.00445325
0.00497602
0.00541843
0.00582018
0.00617368
0.00647305
0.00670763
0.00693502
0.00717436
0.00739446
0.00752583
0.00743982
0.00681312
0.00498391
0.00192132
0.00166379
0.00355934
0.00496738
0.0056332
0.00512315
0.00135173
0.00117528
0.00103916
0.000932685
0.000847985
0.000779645
0.000723917
0.000678589
0.000643242
0.000707179
0.000831937
0.00131798
0.000681817
0.0023291
0.00565859
0.00297921
0.00500686
0.00578057
0.00619452
0.00649881
0.00672384
0.00689166
0.00702758
0.0072211
0.00754827
0.00802593
0.00862706
0.00923213
0.00953173
0.00895361
0.00668555
0.00191356
0.00442746
0.00659078
0.00769126
0.00796315
0.0067986
0.00153925
0.00140001
0.00129221
0.00120254
0.00112613
0.00105754
0.000992892
0.000928698
0.000859357
0.000802827
0.000832332
0.00142759
0.000750767
0.00271837
0.00749074
0.00300571
0.00475942
0.0059488
0.00630156
0.00642943
0.00643409
0.00636989
0.00631302
0.00639386
0.00671154
0.00729483
0.00812142
0.00908091
0.00996587
0.0105279
0.0105226
0.00944394
0.00960906
0.00983087
0.00986317
0.00966328
0.00904505
0.00719838
0.00621783
0.00554612
0.00500068
0.00446543
0.00394683
0.00343945
0.00293287
0.00241271
0.00185318
0.00141392
0.00141339
0.00111808
0.000895677
0.00119089
0.00113808
0.00310131
0.00954098
0.00353855
0.00401335
0.00569941
0.00609065
0.00605891
0.00584036
0.00552819
0.00527081
0.00526492
0.00559765
0.00626198
0.00722008
0.00834212
0.00946441
0.0104192
0.01103
0.0111421
0.0110313
0.0108368
0.0105602
0.0102039
0.00974994
0.0090873
0.00844878
0.00786901
0.00730875
0.00670351
0.00605714
0.00536689
0.00462708
0.00383311
0.00299072
0.00222763
0.00167246
0.00129893
0.00146274
0.00255407
0.00135927
0.0034921
0.0114362
0.00471541
0.00328786
0.00512096
0.00576092
0.00568924
0.00533573
0.00482333
0.00437295
0.00436004
0.00478023
0.00554057
0.00661168
0.00783054
0.00903808
0.0100777
0.0108226
0.0111659
0.0111405
0.0108969
0.0105271
0.0101032
0.00967994
0.00927041
0.00889452
0.0085413
0.00816429
0.0077086
0.00716013
0.00651106
0.0057585
0.00490539
0.00397301
0.00306057
0.0022106
0.00162791
0.00145834
0.00260438
0.00160583
0.00382786
0.0128688
0.00642828
0.00313068
0.00405653
0.00510733
0.00525323
0.00496253
0.00435741
0.00374475
0.00388364
0.00443957
0.00529034
0.00639426
0.00766089
0.00892488
0.0100029
0.0107518
0.0110922
0.0110485
0.0107333
0.010268
0.00976705
0.00932258
0.00897988
0.00873504
0.00854398
0.00833615
0.00804646
0.00764104
0.00710431
0.00643329
0.00563443
0.00473069
0.00378895
0.00283589
0.00197546
0.00133849
0.00377417
0.00211627
0.00392902
0.0121728
0.00795097
0.00404751
0.00274933
0.00336956
0.00394403
0.00399218
0.00352478
0.0034253
0.00378098
0.00443499
0.00535589
0.00652796
0.00785656
0.00915964
0.010233
0.0109227
0.0111643
0.0109974
0.0105398
0.00993954
0.00934379
0.00886827
0.00856646
0.00841849
0.0083515
0.00827174
0.00810498
0.00781188
0.00737706
0.00679913
0.00608535
0.00525379
0.00433844
0.00330666
0.00188688
0.00173655
0.00588567
0.00241734
0.00384948
0.00980986
0.00820762
0.00555369
0.0036681
0.00283972
0.00268974
0.00281676
0.00305299
0.00342933
0.00396411
0.00470112
0.00570455
0.0069705
0.00837296
0.00969444
0.0107101
0.011267
0.0113225
0.0109452
0.0102834
0.00952233
0.00884264
0.00837664
0.00816324
0.00813891
0.00818587
0.00818542
0.00807737
0.00783991
0.00746599
0.00695539
0.00631177
0.00553973
0.00461851
0.00327918
0.00140329
0.00338307
0.00543809
0.00244589
0.00360573
0.00838322
0.00793352
0.00635305
0.00489008
0.00393664
0.00346481
0.00335785
0.00355281
0.00391246
0.00443621
0.00521605
0.00632701
0.00771781
0.00919306
0.0104855
0.0113573
0.0116762
0.0114415
0.0107697
0.0098609
0.00895128
0.00825897
0.00791118
0.00787194
0.00798789
0.00810429
0.00810675
0.00799254
0.00776272
0.00741332
0.00693907
0.00633191
0.00556842
0.00455948
0.00302059
0.0015018
0.00361325
0.00579734
0.00245254
0.00328299
0.0075588
0.00765215
0.00672344
0.00572036
0.00496467
0.00451936
0.00435956
0.00439932
0.00461704
0.00509963
0.00597378
0.0072618
0.00880496
0.0103116
0.0114706
0.0120582
0.011996
0.0113538
0.0103195
0.00916979
0.00820783
0.00766089
0.00755279
0.00765334
0.00780878
0.00790899
0.00788005
0.0077466
0.00751398
0.00717534
0.00671126
0.0060851
0.00521991
0.00398601
0.00249435
0.00177788
0.00372195
0.00610741
0.00257204
0.00299356
0.00676269
0.00730713
0.00686837
0.00622473
0.00568366
0.00532351
0.0051473
0.00509544
0.00528281
0.00589795
0.00704371
0.00860567
0.0102771
0.0116822
0.0125119
0.0126115
0.012
0.0108535
0.00945527
0.00819011
0.00737569
0.00702001
0.00698823
0.00710685
0.0072517
0.00733514
0.00730328
0.00716421
0.00692602
0.00657626
0.00607292
0.00531435
0.00416074
0.00275271
0.00192169
0.00219784
0.00425383
0.0061434
0.00266925
0.00300431
0.006713
0.00746623
0.00695105
0.00643002
0.00600319
0.00569532
0.00549622
0.00548986
0.00594492
0.00703196
0.00865822
0.0104912
0.0121016
0.0131135
0.0133122
0.0126859
0.0113891
0.00975017
0.00816106
0.00700604
0.00633137
0.00603278
0.00598837
0.00607906
0.00619674
0.00625956
0.00622186
0.00606298
0.00579883
0.0054062
0.00480377
0.00385188
0.00264749
0.00188711
0.00199101
0.002823
0.00461395
0.00638872
0.00255534
0.0027102
0.00282063
0.00416508
0.00489679
0.00512407
0.00512895
0.00508096
0.00517815
0.00581024
0.00716002
0.00906426
0.0111211
0.0128745
0.013944
0.0141114
0.0133458
0.011842
0.00989326
0.00803618
0.00658252
0.00561694
0.0050824
0.00486145
0.00481867
0.0048472
0.0048687
0.00483207
0.00471686
0.00450021
0.00420571
0.00383069
0.00332935
0.00266497
0.0020432
0.00190093
0.00239087
0.00336632
0.00457125
0.00528939
0.00240551
0.000963697
0.00173671
0.00266423
0.0034096
0.00427696
0.00574676
0.00791142
0.0103191
0.0125146
0.0141533
0.0149964
0.0148887
0.0138411
0.0119775
0.00977586
0.00770238
0.00606777
0.0049907
0.00441877
0.00416026
0.00404822
0.00398494
0.00391485
0.00380563
0.00364708
0.00345146
0.00324462
0.00303527
0.00283669
0.00263509
0.00241382
0.00222579
0.00227302
0.00276906
0.00369268
0.00476329
0.00547699
0.00233071
0.00178754
0.00246882
0.00359184
0.00559732
0.00831623
0.0110387
0.0131444
0.0146671
0.0155919
0.0158458
0.0153006
0.0138331
0.0116751
0.00924975
0.00704096
0.00541056
0.00447803
0.00405437
0.00388459
0.00381432
0.00377072
0.00371789
0.00363904
0.00353313
0.00341284
0.00329686
0.00319891
0.00311987
0.00305669
0.00300484
0.00296489
0.00296133
0.0030707
0.00344352
0.00424089
0.00551305
0.00640673
0.00252862
0.00323828
0.00787563
0.00726957
0.00649631
0.00823511
0.0109582
0.01325
0.014797
0.015618
0.0158264
0.0155151
0.014619
0.0130788
0.0109417
0.00852586
0.00638217
0.00497478
0.00429788
0.00404757
0.00398127
0.00398004
0.00398907
0.00398195
0.00394894
0.00389308
0.00382552
0.0037594
0.00370499
0.00366876
0.00365534
0.00366867
0.00371346
0.00380173
0.0039457
0.00420239
0.0046575
0.00546976
0.0071303
0.0072988
0.00265177
0.00309513
0.00598034
0.00771756
0.00988061
0.0109616
0.0120702
0.0127108
0.0128609
0.0126138
0.0120316
0.0111291
0.00989802
0.00836842
0.00672353
0.00528423
0.00434137
0.00386872
0.0036905
0.00366607
0.00371495
0.00378941
0.00385865
0.00390493
0.00392278
0.0039164
0.00389445
0.00386534
0.00383638
0.00381748
0.00382577
0.00388652
0.00402866
0.00427487
0.00462812
0.00507775
0.00563344
0.00642523
0.0077629
0.00778268
0.00274237
0.00289467
0.00248122
0.00246898
0.00254127
0.00260099
0.00252395
0.00237455
0.00220046
0.00202511
0.00185586
0.0016935
0.0015404
0.00140625
0.00130673
0.00125171
0.00122977
0.00122896
0.00123927
0.00125465
0.00127176
0.00128885
0.00130525
0.00132112
0.00133729
0.00135522
0.00137683
0.00140456
0.00144148
0.00149114
0.00155677
0.00163984
0.00173889
0.00185018
0.00197038
0.00210023
0.00223765
0.00237824
0.0025258
0.002672
0.00253378
)
;

boundaryField
{
    floor
    {
        type            compressible::alphatWallFunction;
        Prt             0.85;
        value           nonuniform List<scalar> 
36
(
0.00021986
0.000104467
0.000149945
0.000151127
0.000147511
0.000141451
0.000133315
0.000125155
0.000117585
0.00011071
0.0001045
9.89273e-05
9.38905e-05
8.92747e-05
8.49419e-05
8.0701e-05
7.62396e-05
7.25138e-05
6.49294e-05
6.49286e-05
8.41505e-05
9.64085e-05
0.000106506
0.000127385
0.000168781
0.00016147
0.000219858
0.000239664
0.000229055
0.00021972
0.000104466
0.000219718
0.000186338
0.000266691
0.000232734
0.000265677
)
;
    }
    ceiling
    {
        type            compressible::alphatWallFunction;
        Prt             0.85;
        value           nonuniform List<scalar> 
43
(
0.000391171
0.000338973
0.00033742
0.000346621
0.00035421
0.000344469
0.000325454
0.000303125
0.000280439
0.00025834
0.00023693
0.000216529
0.000198456
0.000184908
0.00017736
0.000174333
0.000174213
0.000175629
0.000177744
0.000180097
0.000182446
0.000184697
0.000186869
0.000189076
0.000191511
0.000194431
0.000198164
0.000203112
0.000209744
0.000218484
0.000229519
0.000242638
0.000257322
0.000273099
0.000290024
0.000307852
0.000325971
0.000344857
0.000363424
0.000345799
0.00036831
0.000382192
0.000248636
)
;
    }
    sWall
    {
        type            compressible::alphatWallFunction;
        Prt             0.85;
        value           nonuniform List<scalar> 9(0.000507605 0.00047787 0.000438184 0.000402258 0.000403588 0.000366735 0.000432018 0.000414318 0.00038942);
    }
    nWall
    {
        type            compressible::alphatWallFunction;
        Prt             0.85;
        value           nonuniform List<scalar> 
14
(
0.000161022
0.000191362
0.000224549
0.000333962
0.000334899
0.000350276
0.000362363
0.000347378
0.000328464
0.0003192
0.000344684
0.000360015
0.000371388
0.000345104
)
;
    }
    sideWalls
    {
        type            empty;
    }
    glass1
    {
        type            compressible::alphatWallFunction;
        Prt             0.85;
        value           nonuniform List<scalar> 9(0.000143929 0.000209135 0.000262691 0.0003133 0.000362372 0.000409996 0.000458008 0.000498868 0.000511226);
    }
    glass2
    {
        type            compressible::alphatWallFunction;
        Prt             0.85;
        value           nonuniform List<scalar> 2(0.000289401 0.000327924);
    }
    sun
    {
        type            compressible::alphatWallFunction;
        Prt             0.85;
        value           nonuniform List<scalar> 
14
(
0.000147963
0.00015765
0.000157096
0.000163767
0.000169851
0.000175355
0.00018046
0.000185364
0.000190286
0.000195499
0.000200455
0.000205149
0.000209761
0.000214709
)
;
    }
    Table_master
    {
        type            compressible::alphatWallFunction;
        Prt             0.85;
        value           nonuniform List<scalar> 9(0.000191061 0.000166868 0.000147919 0.000132897 0.000120803 0.000110941 0.000102822 9.61625e-05 9.0932e-05);
    }
    Table_slave
    {
        type            compressible::alphatWallFunction;
        Prt             0.85;
        value           nonuniform List<scalar> 9(0.000216391 0.000197622 0.000182948 0.000170634 0.00016006 0.000150497 0.000141418 0.000132334 0.000122438);
    }
    inlet
    {
        type            fixedValue;
        value           uniform 1.94e-05;
    }
    outlet
    {
        type            zeroGradient;
    }
}


// ************************************************************************* //
