/*--------------------------------*- C++ -*----------------------------------*\
  =========                 |
  \\      /  F ield         | OpenFOAM: The Open Source CFD Toolbox
   \\    /   O peration     | Website:  https://openfoam.org
    \\  /    A nd           | Version:  6
     \\/     M anipulation  |
\*---------------------------------------------------------------------------*/
FoamFile
{
    version     2.0;
    format      ascii;
    class       volScalarField;
    location    "140";
    object      T;
}
// * * * * * * * * * * * * * * * * * * * * * * * * * * * * * * * * * * * * * //

dimensions      [0 0 0 1 0 0 0];

internalField   nonuniform List<scalar> 
458
(
301.79
301.515
301.5
301.495
301.491
301.487
301.482
301.479
301.489
301.534
301.595
301.63
301.651
301.667
301.69
302.45
302.382
302.333
302.34
302.368
302.395
302.423
302.451
302.48
302.508
302.537
302.566
302.595
302.625
302.657
302.692
302.735
302.807
301.961
301.539
301.508
301.503
301.499
301.493
301.476
301.454
301.456
301.517
301.607
301.664
301.694
301.703
301.706
301.719
301.736
301.77
302.471
302.309
302.261
302.281
302.321
302.35
302.379
302.409
302.439
302.471
302.503
302.535
302.568
302.602
302.638
302.678
302.729
302.809
302.149
301.584
301.539
301.544
301.549
301.544
301.506
301.442
301.424
301.503
301.623
301.711
301.757
301.765
301.761
301.761
301.764
301.779
302.386
302.221
302.197
302.25
302.322
302.342
302.369
302.401
302.436
302.473
302.513
302.554
302.594
302.632
302.67
302.706
302.75
302.823
302.348
301.648
301.585
301.606
301.635
301.641
301.566
301.438
301.392
301.488
301.641
301.771
301.842
301.857
301.846
301.83
301.815
301.805
301.825
301.883
301.986
302.122
302.266
302.392
302.491
302.561
302.618
302.67
302.72
302.768
302.815
302.861
302.905
302.855
302.811
302.801
302.845
302.552
301.732
301.639
301.676
301.742
301.764
301.632
301.433
301.367
301.472
301.668
301.849
301.955
301.982
301.963
301.933
301.903
301.888
301.918
301.998
302.129
302.286
302.444
302.583
302.698
302.782
302.851
302.907
302.952
302.987
303.013
303.029
303.032
302.984
302.909
302.86
302.871
303.138
303.339
303.311
302.744
301.844
301.719
301.75
301.867
301.859
301.655
301.419
301.337
301.465
301.718
301.959
302.103
302.144
302.122
302.081
302.05
302.05
302.115
302.236
302.39
302.553
302.705
302.832
302.934
303.011
303.069
303.112
303.145
303.166
303.175
303.171
303.15
303.094
303.01
302.937
302.916
303.052
303.147
303.225
302.93
302.024
301.89
301.913
302.008
301.91
301.619
301.344
301.284
301.478
301.813
302.123
302.302
302.355
302.327
302.288
302.275
302.311
302.416
302.565
302.72
302.868
302.996
303.099
303.178
303.235
303.27
303.296
303.314
303.322
303.318
303.3
303.265
303.206
303.125
303.044
303.001
303.048
303.1
303.155
303.181
302.509
302.345
302.296
302.217
301.881
301.442
301.163
301.21
301.544
301.998
302.374
302.561
302.599
302.579
302.565
302.584
302.655
302.783
302.936
303.07
303.186
303.278
303.347
303.395
303.423
303.441
303.452
303.456
303.452
303.438
303.414
303.378
303.325
303.253
303.185
303.147
303.168
303.209
303.348
303.548
303.218
302.969
302.753
302.191
301.418
300.891
300.815
301.183
301.779
302.374
302.731
302.849
302.873
302.879
302.9
302.952
303.04
303.157
303.278
303.381
303.458
303.513
303.548
303.569
303.579
303.584
303.581
303.571
303.554
303.531
303.505
303.48
303.46
303.452
303.462
303.494
303.535
303.565
303.645
295.507
296.417
297.045
298.095
299.299
300.482
301.642
302.559
302.936
303.087
303.141
303.17
303.201
303.246
303.308
303.388
303.476
303.557
303.621
303.665
303.691
303.705
303.708
303.705
303.696
303.681
303.662
303.639
303.615
303.592
303.573
303.56
303.558
303.571
303.604
303.658
303.744
303.911
295.976
297.436
299.524
300.857
301.77
302.447
302.92
303.196
303.326
303.393
303.435
303.473
303.513
303.559
303.613
303.67
303.725
303.771
303.804
303.823
303.831
303.83
303.822
303.81
303.793
303.773
303.751
303.727
303.703
303.68
303.659
303.642
303.633
303.635
303.653
303.705
303.784
303.886
298.983
298.94
298.933
300.893
302.244
302.959
303.282
303.457
303.571
303.646
303.697
303.736
303.77
303.8
303.829
303.858
303.886
303.911
303.933
303.947
303.955
303.956
303.952
303.943
303.931
303.916
303.898
303.879
303.858
303.836
303.812
303.788
303.763
303.741
303.721
303.708
303.72
303.755
303.804
303.941
)
;

boundaryField
{
    floor
    {
        type            wallHeatTransfer;
        Tinf            uniform 305.2;
        alphaWall       uniform 0.24;
        value           nonuniform List<scalar> 
36
(
302.022
302.875
302.772
302.686
302.668
302.693
302.732
302.777
302.821
302.864
302.906
302.947
302.987
303.026
303.065
303.106
303.15
303.204
303.293
303.293
303.265
303.259
303.261
303.461
303.612
303.571
302.022
302.013
302.058
302.133
302.875
302.133
302.905
302.112
302.785
302.137
)
;
    }
    ceiling
    {
        type            wallHeatTransfer;
        Tinf            uniform 303.2;
        alphaWall       uniform 0.24;
        value           nonuniform List<scalar> 
43
(
299.215
299.169
299.156
301.003
302.294
302.975
303.276
303.438
303.541
303.607
303.652
303.687
303.716
303.743
303.769
303.794
303.818
303.84
303.856
303.867
303.87
303.868
303.861
303.851
303.838
303.823
303.807
303.79
303.772
303.753
303.733
303.714
303.695
303.677
303.663
303.654
303.665
303.695
303.735
303.855
303.532
303.218
296.391
)
;
    }
    sWall
    {
        type            wallHeatTransfer;
        Tinf            uniform 315.2;
        alphaWall       uniform 0.36;
        value           uniform 300.29;
    }
    nWall
    {
        type            wallHeatTransfer;
        Tinf            uniform 307.2;
        alphaWall       uniform 0.36;
        value           nonuniform List<scalar> 6(304.063 303.976 303.84 304.398 304.369 304.482);
    }
    sideWalls
    {
        type            empty;
    }
    glass1
    {
        type            wallHeatTransfer;
        Tinf            uniform 315.2;
        alphaWall       uniform 4.3;
        value           nonuniform List<scalar> 9(310.377 309.798 309.436 309.165 308.939 308.73 308.583 308.67 308.929);
    }
    glass2
    {
        type            wallHeatTransfer;
        Tinf            uniform 307.2;
        alphaWall       uniform 4.3;
        value           nonuniform List<scalar> 2(305.764 305.92);
    }
    sun
    {
        type            wallHeatTransfer;
        Tinf            uniform 305.2;
        alphaWall       uniform 0.24;
        value           nonuniform List<scalar> 
14
(
302.092
301.815
301.792
301.775
301.759
301.744
301.73
301.721
301.727
301.772
301.843
301.892
301.932
301.971
)
;
    }
    Table_master
    {
        type            zeroGradient;
    }
    Table_slave
    {
        type            zeroGradient;
    }
    inlet
    {
        type            fixedValue;
        value           uniform 293.15;
    }
    outlet
    {
        type            zeroGradient;
    }
}


// ************************************************************************* //
