/*--------------------------------*- C++ -*----------------------------------*\
  =========                 |
  \\      /  F ield         | OpenFOAM: The Open Source CFD Toolbox
   \\    /   O peration     | Website:  https://openfoam.org
    \\  /    A nd           | Version:  6
     \\/     M anipulation  |
\*---------------------------------------------------------------------------*/
FoamFile
{
    version     2.0;
    format      ascii;
    class       surfaceScalarField;
    location    "27699.9999984998394";
    object      phi;
}
// * * * * * * * * * * * * * * * * * * * * * * * * * * * * * * * * * * * * * //

dimensions      [1 0 -1 0 0 0 0];

internalField   nonuniform List<scalar> 
1482
(
-0.00279973
0.00286376
-0.00348386
0.000684128
-0.00414444
0.00066058
-0.00475837
0.000613928
-0.00527953
0.000521163
-0.00569118
0.000411654
-0.00598212
0.000290936
-0.00613931
0.000157187
-0.00614545
6.13938e-06
-0.00597458
-0.000170861
-0.0055968
-0.000377784
-0.00498107
-0.000615733
-0.00405719
-0.000923873
-0.00257897
-0.00147822
-0.00257605
-6.3185e-05
6.80401e-05
0.000781795
-0.00084498
0.00143531
-0.000653512
0.00183559
-0.00040028
0.0020579
-0.000222315
0.00216254
-0.000104636
0.00220994
-4.74051e-05
0.00223289
-2.29434e-05
0.00224279
-9.90453e-06
0.00224378
-9.91538e-07
0.00223673
7.04994e-06
0.00221766
1.907e-05
0.00217327
4.43899e-05
0.00207032
0.000102947
0.00185331
0.000217019
0.00149516
0.000358144
0.00102266
0.0004725
0.0010291
-0.00204032
0.0050744
-0.00290834
0.00155215
-0.00369407
0.00144631
-0.00434495
0.00126481
-0.00488199
0.0010582
-0.00531048
0.000840144
-0.00562865
0.000609105
-0.00582972
0.000358264
-0.00590307
7.94865e-05
-0.00584089
-0.000233039
-0.00563738
-0.00058129
-0.00528122
-0.000971895
-0.00477121
-0.00143388
-0.00428534
-0.00196409
-0.00470102
-0.00216037
-0.0031156
-0.00157998
-0.00163347
-0.00147644
-0.00161862
0.00131853
-0.00124028
0.00166369
-0.00119015
0.00191629
-0.000906112
0.00210833
-0.000592321
0.00221643
-0.00033041
0.00222544
-0.00011365
0.00222734
-4.93041e-05
0.00222891
-2.45156e-05
0.00222987
-1.08643e-05
0.00222991
-1.02576e-06
0.00222857
8.38624e-06
0.00222438
2.32627e-05
0.00221172
5.70454e-05
0.00214971
0.000164962
0.00189974
0.000466985
0.00146958
0.000788308
0.000904918
0.00103716
0.0019509
-0.00148818
0.0068205
-0.00235896
0.00242292
-0.0031288
0.00221615
-0.00371286
0.00184887
-0.00418331
0.00152866
-0.0045545
0.00121133
-0.00482823
0.000882837
-0.0050013
0.000531331
-0.00506732
0.000145517
-0.00501727
-0.000283094
-0.00484039
-0.000758168
-0.00452923
-0.00128305
-0.00411457
-0.00184855
-0.00371701
-0.00236164
-0.00329658
-0.0025808
-0.00236552
-0.00251104
-0.00127227
-0.00256968
-0.00287806
0.00115135
-0.00237717
0.00165529
-0.00169409
0.00195414
-0.00120497
0.00214766
-0.00078584
0.00217924
-0.000361991
0.00206575
0.0020166
0.00199223
0.00198152
0.00198065
0.00198919
0.00201261
0.00206981
0.00223493
0.00187638
0.000825528
0.00142781
0.00123688
0.000807193
0.00165777
0.00278412
-0.00110598
0.00825769
-0.00192776
0.0032447
-0.00256963
0.00285802
-0.00302979
0.00230903
-0.00339712
0.00189599
-0.00368567
0.00149988
-0.00389845
0.00109561
-0.0040336
0.000666489
-0.00408365
0.000195564
-0.00403541
-0.000331328
-0.00387661
-0.000916969
-0.00360308
-0.00155658
-0.00323734
-0.00221429
-0.00281518
-0.0027838
-0.00227557
-0.00312041
-0.0015558
-0.00323081
-0.000867448
-0.00325803
-0.000686683
-0.00305883
0.0014496
-0.00212084
0.00137954
-0.0023071
0.00169429
-0.00200884
0.00200646
-0.00151714
0.00227246
-0.00105183
0.0025477
-0.000637234
0.00286307
-0.000315522
0.00303142
-0.000168503
0.00309743
-6.61679e-05
0.00308164
1.5635e-05
0.00299279
8.87047e-05
0.00283174
0.000160894
0.00259054
0.000241042
0.00224613
0.000344255
0.0017411
0.000504881
0.00160419
0.000962438
0.00127619
0.00156488
0.00074871
0.00218526
0.00356712
-0.00080369
0.00945457
-0.00157971
0.00402072
-0.00204813
0.00332645
-0.00236365
0.00262454
-0.00260782
0.00214017
-0.00279316
0.00168522
-0.00292466
0.00122711
-0.00300304
0.000744873
-0.00302176
0.000214279
-0.00296419
-0.000388893
-0.00281707
-0.00106409
-0.00257337
-0.00180029
-0.00223958
-0.00254808
-0.00182282
-0.00320057
-0.00131721
-0.00362602
-0.000740444
-0.00380758
-0.000208947
-0.00378953
0.000268326
-0.0035361
0.00112887
-0.00298138
0.00149377
-0.002672
0.00175161
-0.00226668
0.00200337
-0.00176889
0.00223286
-0.00128133
0.0024471
-0.000851468
0.0026491
-0.000517522
0.00276058
-0.000279989
0.00279843
-0.00010401
0.00277423
3.98289e-05
0.00269426
0.000168677
0.00256086
0.000294291
0.00237275
0.000429156
0.00212752
0.000589481
0.00183341
0.000798995
0.00162795
0.0011679
0.00148769
0.00170514
0.00131121
0.00236173
0.00230639
0.00257194
0.00134565
0.00099563
0.00190503
-0.000530838
0.00202339
-0.000575792
0.0104767
-0.00132458
0.00476951
-0.0015839
0.00358577
-0.00174959
0.00279023
-0.00186339
0.00225396
-0.00193473
0.00175656
-0.00197008
0.00126246
-0.00197372
0.000748514
-0.00194243
0.000182988
-0.00185447
-0.000476854
-0.00169996
-0.0012186
-0.00146882
-0.00203143
-0.00116392
-0.00285298
-0.000791142
-0.00357335
-0.000370928
-0.00404624
6.96818e-05
-0.0042482
0.000475013
-0.00419487
0.000849286
-0.00391038
0.00129961
-0.00343172
0.00159745
-0.00296983
0.00179968
-0.00246892
0.00197038
-0.00193959
0.00212174
-0.00143269
0.00225648
-0.000986206
0.00236228
-0.000623319
0.00242197
-0.000339682
0.00243492
-0.000116963
0.00240614
6.86095e-05
0.00234022
0.000234594
0.00224077
0.000393743
0.00211166
0.000558263
0.00195989
0.000741259
0.00180008
0.0009588
0.0017091
0.00125888
0.00176751
0.00164673
0.0019831
0.00214614
0.00223472
0.00232032
0.00175569
0.00147466
0.000825062
0.000399783
0.00294559
-0.000543503
0.0115124
-0.00124358
0.00546958
-0.0011915
0.00353369
-0.00119955
0.00279827
-0.00119169
0.00224611
-0.0011581
0.00172297
-0.00110093
0.00120529
-0.00102593
0.000673511
-0.000927536
8.45926e-05
-0.000778698
-0.000625693
-0.000589434
-0.00140786
-0.000349048
-0.00227182
-6.46664e-05
-0.00313736
0.000240799
-0.00387882
0.000551344
-0.00435679
0.000846897
-0.00454375
0.00111003
-0.00445801
0.00134317
-0.00414352
0.00157423
-0.00366278
0.00173286
-0.00312847
0.00183167
-0.00256772
0.00190087
-0.00200879
0.00195635
-0.00148818
0.00200339
-0.00103324
0.00203676
-0.000656688
0.00205062
-0.000353547
0.00204133
-0.000107673
0.00200937
0.000100577
0.00195749
0.000286469
0.00188915
0.000462084
0.0018092
0.000638217
0.00172588
0.000824575
0.00165421
0.00103047
0.00163808
0.00127501
0.00172431
0.0015605
0.00193842
0.00193203
0.00220523
0.00205351
0.00223623
0.00144366
0.0016407
0.000995311
0.00468862
-0.000483767
0.0125317
-0.00105152
0.00603734
-0.000697045
0.00317922
-0.000635835
0.00273706
-0.000567211
0.00217749
-0.000462369
0.00161813
-0.00033328
0.0010762
-0.000182072
0.000522304
7.07864e-06
-0.000104558
0.00022509
-0.000843705
0.000464903
-0.00164767
0.000723013
-0.00252993
0.000980617
-0.00339496
0.00120993
-0.00410813
0.00141005
-0.00455691
0.00157184
-0.00470554
0.00168991
-0.00457608
0.00176894
-0.00422255
0.00182134
-0.00371519
0.00183044
-0.00313757
0.00180466
-0.00254195
0.00176327
-0.0019674
0.00172136
-0.00144627
0.00168658
-0.00099846
0.00165902
-0.000629118
0.0016347
-0.000329231
0.00160863
-8.16016e-05
0.00157827
0.000130936
0.00154345
0.000321285
0.00150504
0.000500493
0.00146563
0.000677632
0.00143074
0.000859462
0.00141066
0.00105055
0.0014288
0.00125687
0.00151553
0.00147377
0.00172844
0.00171912
0.00204451
0.00173744
0.00222428
0.00126389
0.00175794
0.00146164
0.00681184
0.00297928
0.0101396
0.00202381
0.0069928
0.000870141
0.00433289
0.000371668
0.00323554
0.000214887
0.00233427
0.000271429
0.00156159
0.000425406
0.000922224
0.000639263
0.000308446
0.000898459
-0.000363755
0.00116334
-0.00110859
0.00144203
-0.00192636
0.0017095
-0.0027974
0.00193631
-0.00362177
0.002098
-0.00426982
0.00218861
-0.00464751
0.00221062
-0.00472756
0.00217277
-0.00453823
0.00208865
-0.00413844
0.00197353
-0.00360006
0.0018331
-0.00299714
0.00167974
-0.0023886
0.00153056
-0.00181822
0.00140046
-0.00131617
0.00129793
-0.000895933
0.00122444
-0.000555631
0.00117527
-0.000280054
0.00114302
-4.93578e-05
0.00112207
0.000151885
0.00110844
0.000334916
0.00109933
0.00050961
0.00109391
0.000683052
0.00109357
0.0008598
0.00110215
0.00104196
0.00112926
0.00122976
0.00119086
0.00141217
0.0013421
0.00156789
0.0016424
0.00143714
0.00175812
0.00114819
0.000442366
0.00277735
0.00763645
0.00403336
0.00624646
0.00366989
0.00735627
0.00254395
0.00545883
0.00189033
0.00388916
0.0015337
0.0026909
0.0013889
0.00170639
0.00142277
0.000888363
0.00159721
0.000134006
0.00184926
-0.000615809
0.00212645
-0.00138578
0.00240639
-0.0022063
0.00265183
-0.00304284
0.00282104
-0.00379097
0.00288686
-0.00433564
0.00284596
-0.0046066
0.00271207
-0.00459366
0.00250742
-0.00433359
0.00225627
-0.00388729
0.00198138
-0.00332517
0.00169988
-0.00271565
0.00142917
-0.00211788
0.00118732
-0.00157637
0.000989439
-0.00111829
0.000842388
-0.000748882
0.000745514
-0.000458758
0.000690151
-0.000224691
0.000665257
-2.44629e-05
0.000661573
0.00015557
0.000671596
0.000324893
0.000689893
0.000491313
0.000713109
0.000659837
0.000738555
0.000834355
0.000762302
0.00101822
0.000776152
0.00121591
0.000755175
0.00143315
0.000621646
0.00170142
-2.03438e-05
0.00207918
-0.00196933
0.00309739
-0.00337758
0.00418558
0.00436196
0.00241029
0.00400069
0.00330575
0.00646082
0.00324957
0.00551501
0.00303865
0.00410008
0.00284772
0.00288184
0.00272462
0.00182949
0.00271087
0.000902115
0.00279996
4.49191e-05
0.00296196
-0.000777812
0.00317266
-0.00159648
0.0033904
-0.00242403
0.00355516
-0.0032076
0.00361207
-0.00384787
0.00353437
-0.00425793
0.00332743
-0.00439965
0.00301739
-0.00428361
0.00263857
-0.00395477
0.00222431
-0.00347303
0.00180413
-0.00290499
0.00140151
-0.00231303
0.00103814
-0.00175452
0.000733826
-0.00127205
0.000503118
-0.000887583
0.000345799
-0.000591562
0.000253897
-0.000366856
0.000211244
-0.000182039
0.000203443
-1.66615e-05
0.000219383
0.000139629
0.000250818
0.000293459
0.000292352
0.000449779
0.000340248
0.000611942
0.00039006
0.000784543
0.000434696
0.000973579
0.000459095
0.00119151
0.000425876
0.00146636
0.000256961
0.00187033
-0.000253695
0.00258998
-0.0013066
0.00415078
-0.00179709
0.00467633
0.00267947
0.00145626
0.00273871
0.00274743
0.00516964
0.00343164
0.00483081
0.00371814
0.00381358
0.00381717
0.00278281
0.00384584
0.00180082
0.00388248
0.000865482
0.00395192
-2.45204e-05
0.00406188
-0.000887773
0.00420187
-0.00173646
0.00432073
-0.00254289
0.00434782
-0.00323468
0.00423144
-0.00373148
0.00395933
-0.00398581
0.00355397
-0.00399428
0.00305517
-0.0037848
0.0025067
-0.0034063
0.00194713
-0.00291346
0.00141036
-0.00236822
0.000922566
-0.00182524
0.000510823
-0.00134278
0.000193959
-0.000955186
-2.0679e-05
-0.000672946
-0.000147805
-0.000464437
-0.000211339
-0.000303322
-0.000232436
-0.000160942
-0.000223801
-2.52968e-05
-0.000193711
0.00010954
-0.00014776
0.000247508
-8.96189e-05
0.000391638
-2.19412e-05
0.000544264
5.23601e-05
0.000710242
0.000128772
0.000897168
0.000199088
0.0011212
0.000240776
0.00142467
0.000200458
0.00191061
0.000105902
0.00268449
0.000202498
0.00405451
0.000222226
0.0046569
0.00302465
0.00216739
0.000797296
0.00293844
0.0043986
0.00359051
0.00417873
0.00416225
0.00324185
0.00449125
0.0024538
0.00466667
0.00162541
0.00478427
0.000747883
0.0048892
-0.000129454
0.00499519
-0.000993771
0.00507276
-0.00181403
0.00505672
-0.00252685
0.004887
-0.00306495
0.00454104
-0.00338552
0.00403781
-0.00348256
0.00342233
-0.00337878
0.0027454
-0.00310786
0.00205531
-0.00271621
0.00138967
-0.00224781
0.000786811
-0.00176537
0.000271726
-0.00131016
-0.000117626
-0.000953428
-0.000375138
-0.000697675
-0.000526154
-0.000521932
-0.000606042
-0.000384551
-0.000642168
-0.000267197
-0.000646946
-0.000156164
-0.00062749
-4.47529e-05
-0.000588643
7.06931e-05
-0.000533723
0.000192589
-0.00046537
0.000323285
-0.000385935
0.00046483
-0.000296562
0.00062087
-0.000197334
0.000797941
-8.86313e-05
0.00101249
1.14364e-05
0.00132457
6.89484e-05
0.00185296
0.000213683
0.00253946
0.000840145
0.00342795
0.00127165
0.00422538
0.00442529
-0.0015798
0.00262219
0.00111533
0.00170347
0.00334786
0.00194621
0.00435156
0.00223814
0.00485695
0.00194841
0.00517294
0.00130942
0.00540173
0.000519091
0.00557916
-0.000306886
0.00567727
-0.0010919
0.00563474
-0.00177152
0.00540102
-0.00229314
0.00496446
-0.00262838
0.00435307
-0.00277412
0.00362004
-0.00274952
0.00282566
-0.00258439
0.00201994
-0.00230214
0.00125049
-0.00194675
0.000547361
-0.00154468
-4.36032e-05
-0.0011744
-0.00048001
-0.00087375
-0.000757584
-0.000675856
-0.000921031
-0.000534234
-0.00101566
-0.000427307
-0.00106469
-0.00033553
-0.00108219
-0.000249703
-0.00107456
-0.000163794
-0.00104565
-7.36592e-05
-0.000999062
2.41077e-05
-0.000937651
0.000131179
-0.000864071
0.000249707
-0.000782197
0.000382958
-0.000695977
0.000534651
-0.000610519
0.000712488
-0.000536852
0.00093883
-0.000497434
0.00128511
-0.000479111
0.00183439
-0.000311181
0.00237099
0.000503049
0.00261313
0.00103019
0.00369769
0.00559509
0.00288389
0.00457217
0.00487129
0.00164708
0.00535825
0.00175118
0.00559592
0.00171074
0.00582807
0.00107726
0.00601473
0.000332424
0.00607911
-0.000371312
0.00595091
-0.000963745
0.00559731
-0.00141794
0.00503121
-0.00172706
0.00429989
-0.00189706
0.00346214
-0.00193636
0.0025773
-0.00186466
0.00170043
-0.0017075
0.000864577
-0.00146628
0.00011034
-0.00119251
-0.000505848
-0.000928489
-0.000944235
-0.000736008
-0.00122069
-0.000597303
-0.00139331
-0.000503247
-0.00149799
-0.000429568
-0.00156021
-0.000365102
-0.00159156
-0.000304193
-0.00159733
-0.000243938
-0.00157981
-0.000181306
-0.00154106
-0.000112407
-0.00148473
-3.22102e-05
-0.00141525
6.17043e-05
-0.00133711
0.000171569
-0.00125742
0.000303273
-0.00118731
0.00046454
-0.00114421
0.000669409
-0.00115324
0.000947949
-0.00123072
0.00136271
-0.00136522
0.00196891
-0.00160111
0.00260659
-0.0019412
0.00295263
-0.00178638
0.00354217
0.00396473
0.00793666
0.00535919
0.00581854
0.00386933
0.00557022
0.00195907
0.00564042
0.00100704
0.00560251
0.000370272
0.00535633
-0.000125208
0.00489065
-0.000498112
0.00424617
-0.000773484
0.00347718
-0.000958077
0.00263739
-0.00105725
0.0017693
-0.00106826
0.000911414
-0.00100675
9.88392e-05
-0.000894912
-0.000611762
-0.000755667
-0.00116618
-0.000638077
-0.00155516
-0.000539503
-0.00181755
-0.000473614
-0.00198822
-0.000426657
-0.00210367
-0.000387834
-0.00218309
-0.000350192
-0.0022355
-0.000312727
-0.00226421
-0.000275509
-0.00227015
-0.000237997
-0.00225306
-0.000198373
-0.00221213
-0.000153304
-0.0021469
-9.74098e-05
-0.00206251
-2.26521e-05
-0.00196683
7.58923e-05
-0.00186695
0.000203375
-0.00177501
0.000372571
-0.00170868
0.000603082
-0.00168609
0.000925464
-0.00171184
0.00138874
-0.00178648
0.00204395
-0.0021077
0.0029282
-0.00309966
0.00394485
-0.003389
0.00383167
0.000748171
0.0041207
0.00148504
0.00452084
0.00346919
0.0037451
0.00273479
0.00323734
0.00151473
0.00288809
0.000719436
0.00251919
0.000243643
0.00207003
-4.89808e-05
0.00152812
-0.000231568
0.000913699
-0.000343641
0.000245561
-0.000389087
-0.000435969
-0.000386708
-0.00107178
-0.000370911
-0.00161304
-0.000353627
-0.00203182
-0.00033686
-0.00233909
-0.000330791
-0.00255292
-0.000325674
-0.00270813
-0.000318433
-0.0028289
-0.000305947
-0.00292756
-0.000289253
-0.00300738
-0.000270449
-0.00306854
-0.000251625
-0.00311024
-0.000233833
-0.00313101
-0.000217208
-0.0031282
-0.000201127
-0.00309759
-0.000183819
-0.00303372
-0.000161177
-0.00293121
-0.000125088
-0.00279341
-6.18922e-05
-0.00263462
4.45382e-05
-0.00246765
0.000205506
-0.00229966
0.000434975
-0.00212642
0.00075219
-0.00191781
0.00118025
-0.00162076
0.00174728
-0.00117069
0.00247864
-0.000562237
0.00333687
-8.64301e-08
0.0032699
0.000927189
-0.00258954
-0.00674629
-0.00740322
-0.00745365
-0.00374692
-0.0021713
-0.00166703
0.00138926
-0.000753997
0.0018217
-0.00055704
0.00131771
-0.000638717
0.000801066
-0.000826463
0.000431362
-0.00106799
0.000192534
-0.00135561
5.6047e-05
-0.00169286
-6.37252e-06
-0.0020558
-2.61114e-05
-0.002412
-3.04648e-05
-0.00273654
-4.63131e-05
-0.00300009
-9.00305e-05
-0.00319156
-0.000145361
-0.0033322
-0.000190157
-0.00344816
-0.000209756
-0.00355798
-0.000208701
-0.00366673
-0.000197313
-0.00377214
-0.000183961
-0.00386943
-0.000173265
-0.00395401
-0.000167106
-0.00402206
-0.00016579
-0.00406988
-0.00016932
-0.00409271
-0.000178176
-0.00408366
-0.000192699
-0.00403399
-0.000210665
-0.00393479
-0.000224114
-0.00377892
-0.00021766
-0.00356593
-0.000168454
-0.00331082
-4.97551e-05
-0.0030286
0.000152523
-0.00270449
0.000427819
-0.00227734
0.00075292
-0.00164181
0.00111174
-0.000654804
0.00149184
0.000647403
0.00203494
0.00133163
0.00258602
0.00243932
-0.00733651
0.00104363
-0.00810947
-0.00668075
-0.00716677
-0.00311406
-0.00564869
-0.000128885
-0.00455594
0.000728883
-0.00396386
0.000725578
-0.00370418
0.00054135
-0.00363708
0.00036424
-0.00367881
0.000234274
-0.00377293
0.000150194
-0.00387678
9.75199e-05
-0.00396205
5.92165e-05
-0.00401908
2.66341e-05
-0.00405757
-7.74574e-06
-0.00409632
-5.12422e-05
-0.00414813
-9.35515e-05
-0.00421751
-0.00012083
-0.00429918
-0.000128178
-0.00438588
-0.000122144
-0.00447159
-0.000111749
-0.00455228
-0.000103412
-0.00462531
-0.000100333
-0.00468892
-0.000103525
-0.00474173
-0.000112945
-0.00478222
-0.000128712
-0.00480831
-0.000151889
-0.00481699
-0.000183763
-0.00480421
-0.000223145
-0.00476506
-0.000262981
-0.00469334
-0.000289142
-0.00457844
-0.000283241
-0.00440019
-0.000228089
-0.00413654
-0.000111435
-0.0037786
6.9427e-05
-0.0032979
0.00027176
-0.00260975
0.000423212
-0.00150841
0.00039028
0.000320659
0.00020583
0.00143964
0.00146714
0.00406362
0.00158525
-0.00503096
-0.00808195
-0.00815146
-0.00736819
-0.00659592
-0.00601444
-0.00561476
-0.00534804
-0.0051671
-0.00503953
-0.00495019
-0.00489289
-0.00486931
-0.00488883
-0.00495056
-0.0050396
-0.00513604
-0.00522645
-0.00530643
-0.00537806
-0.00544663
-0.00551854
-0.00560015
-0.00569803
-0.00581981
-0.00597446
-0.00616973
-0.00640627
-0.0066705
-0.00693031
-0.00713625
-0.00722657
-0.00713681
-0.00684531
-0.00640291
-0.00599408
-0.00577044
-0.00428629
)
;

boundaryField
{
    floor
    {
        type            calculated;
        value           nonuniform List<scalar> 
36
(
0
0
0
0
0
0
0
0
0
0
0
0
0
0
0
0
0
0
0
-6.4391e-06
-1.68829e-05
-2.60262e-05
-3.42933e-05
-3.48957e-05
-2.85439e-05
-2.85088e-05
-2.92056e-06
-5.4423e-06
-5.68866e-06
-5.90869e-06
-4.85469e-06
-8.93981e-06
-1.02088e-05
-1.28325e-05
-1.44557e-05
-1.54452e-05
)
;
    }
    ceiling
    {
        type            calculated;
        value           nonuniform List<scalar> 
43
(
-5.77951e-05
-6.45935e-05
-6.31548e-05
-5.94696e-05
-5.44672e-05
-4.67676e-05
-4.01678e-05
-3.54526e-05
-3.24141e-05
-3.06869e-05
-2.99641e-05
-3.00199e-05
-3.0586e-05
-3.12664e-05
-3.16943e-05
-3.1853e-05
-3.18658e-05
-3.18542e-05
-3.18638e-05
-3.18852e-05
-3.18825e-05
-3.18092e-05
-3.16157e-05
-3.12552e-05
-3.0688e-05
-2.98866e-05
-2.88432e-05
-2.75808e-05
-2.61673e-05
-2.47197e-05
-2.33774e-05
-2.22499e-05
-2.13752e-05
-2.0712e-05
-2.0149e-05
-1.954e-05
-1.87926e-05
-1.79093e-05
-1.69983e-05
-1.67261e-05
1.93345e-05
1.51842e-05
-0.000246546
)
;
    }
    sWall
    {
        type            calculated;
        value           nonuniform List<scalar> 9(-0.000140238 -0.000164531 -0.000194269 -0.000225975 -0.000245095 -0.000281035 -0.000423402 -0.000453442 -0.000483832);
    }
    nWall
    {
        type            calculated;
        value           nonuniform List<scalar> 
14
(
-8.98456e-05
-9.71467e-05
-0.000102342
-0.000103158
-0.000114628
-0.000122798
-0.000129152
-0.000140219
-0.00015654
-0.000172457
-0.00017849
-0.00018026
-0.000184582
-0.000205875
)
;
    }
    sideWalls
    {
        type            empty;
        value           nonuniform 0();
    }
    glass1
    {
        type            calculated;
        value           nonuniform List<scalar> 9(-6.40341e-05 -0.00017032 -0.000257922 -0.000331204 -0.000393186 -0.00044639 -0.000492199 -0.000535478 -0.000587164);
    }
    glass2
    {
        type            calculated;
        value           nonuniform List<scalar> 2(-0.000365291 -0.000382312);
    }
    sun
    {
        type            calculated;
        value           uniform 0;
    }
    Table_master
    {
        type            calculated;
        value           nonuniform List<scalar> 9(-1.53991e-07 -1.54108e-07 -1.5414e-07 -1.5416e-07 -1.54173e-07 -1.54178e-07 -1.54177e-07 -1.54162e-07 -1.54109e-07);
    }
    Table_slave
    {
        type            calculated;
        value           nonuniform List<scalar> 9(1.53661e-07 1.53717e-07 1.53716e-07 1.53733e-07 1.53753e-07 1.53797e-07 1.53864e-07 1.53957e-07 1.54084e-07);
    }
    inlet
    {
        type            calculated;
        value           uniform -0.0116488;
    }
    outlet
    {
        type            calculated;
        value           nonuniform List<scalar> 2(0.00975921 0.0122673);
    }
}


// ************************************************************************* //
