/*--------------------------------*- C++ -*----------------------------------*\
  =========                 |
  \\      /  F ield         | OpenFOAM: The Open Source CFD Toolbox
   \\    /   O peration     | Website:  https://openfoam.org
    \\  /    A nd           | Version:  6
     \\/     M anipulation  |
\*---------------------------------------------------------------------------*/
FoamFile
{
    version     2.0;
    format      ascii;
    class       volVectorField;
    location    "27699.9999984998394";
    object      U;
}
// * * * * * * * * * * * * * * * * * * * * * * * * * * * * * * * * * * * * * //

dimensions      [0 1 -1 0 0 0 0];

internalField   nonuniform List<vector> 
778
(
(0.0656022 0.0794064 0)
(-0.155174 0.0157633 0)
(-0.164297 0.0146219 0)
(-0.192409 0.0122709 0)
(-0.216838 0.00871958 0)
(-0.23689 0.0047379 0)
(-0.252007 0.000410869 0)
(-0.261767 -0.00437384 0)
(-0.265657 -0.00981474 0)
(-0.262676 -0.0161923 0)
(-0.25087 -0.0242626 0)
(-0.226175 -0.0348772 0)
(-0.186063 -0.0503928 0)
(-0.14414 -0.0751541 0)
(-0.150022 -0.108533 0)
(0.0546902 0.0354709 0)
(0.0158282 -0.0268864 0)
(0.0450419 -0.0232709 0)
(0.0694719 -0.0161669 0)
(0.0845526 -0.0103591 0)
(0.0917716 -0.0064172 0)
(0.0946088 -0.00433946 0)
(0.0956463 -0.00331792 0)
(0.0961072 -0.00273071 0)
(0.0962844 -0.00231652 0)
(0.0961622 -0.00195092 0)
(0.0956347 -0.00150951 0)
(0.0943739 -0.000754817 0)
(0.0915212 0.00085075 0)
(0.0853057 0.00407749 0)
(0.0737429 0.0077908 0)
(0.0600477 0.0116406 0)
(-0.00788242 0.030026 0)
(0.258404 0.167391 0)
(-0.161234 0.048388 0)
(-0.141597 0.0459748 0)
(-0.173997 0.0416064 0)
(-0.199353 0.0356563 0)
(-0.220065 0.0291148 0)
(-0.236084 0.0220421 0)
(-0.247325 0.0142123 0)
(-0.25349 0.00528217 0)
(-0.253799 -0.0051637 0)
(-0.247641 -0.0170886 0)
(-0.233936 -0.0308507 0)
(-0.214032 -0.0480702 0)
(-0.197458 -0.069946 0)
(-0.193944 -0.0826189 0)
(-0.166348 -0.0425275 0)
(-0.105324 -0.036341 0)
(-0.0983227 -0.0444361 0)
(0.109359 -0.0421791 0)
(0.0645103 -0.041233 0)
(0.0719942 -0.0323213 0)
(0.0860131 -0.0207615 0)
(0.0939518 -0.0105043 0)
(0.0962057 -0.00364552 0)
(0.0959656 -0.000199076 0)
(0.0955717 0.00123953 0)
(0.0955329 0.00188556 0)
(0.095614 0.00226234 0)
(0.0956227 0.00258881 0)
(0.0955238 0.00313441 0)
(0.0952332 0.00441819 0)
(0.0939747 0.00773818 0)
(0.0883711 0.0167843 0)
(0.0745918 0.0253904 0)
(0.0632209 0.0330335 0)
(-0.0519128 0.0636978 0)
(0.429988 0.253951 0)
(-0.194234 0.0847526 0)
(-0.112771 0.0784223 0)
(-0.148232 0.0669404 0)
(-0.170657 0.0554793 0)
(-0.188742 0.0437021 0)
(-0.202569 0.0313169 0)
(-0.212251 0.0179814 0)
(-0.217592 0.00337742 0)
(-0.217941 -0.0126465 0)
(-0.21268 -0.0303313 0)
(-0.201571 -0.0499092 0)
(-0.185926 -0.0715641 0)
(-0.169384 -0.0932019 0)
(-0.151006 -0.104545 0)
(-0.120169 -0.0931121 0)
(-0.0794868 -0.0948929 0)
(-0.0714019 -0.107529 0)
(0.092173 -0.0882628 0)
(0.0626179 -0.0658465 0)
(0.0744424 -0.0462127 0)
(0.0881094 -0.0293323 0)
(0.0950006 -0.0149998 0)
(0.092137 -0.0120282 0)
(0.0878961 -0.00793878 0)
(0.0855232 -0.00577687 0)
(0.084825 -0.00456233 0)
(0.0847933 -0.00380282 0)
(0.0850438 -0.0032296 0)
(0.0856962 -0.0026 0)
(0.0874614 -0.00143794 0)
(0.0921547 0.00292549 0)
(0.0903193 0.0251327 0)
(0.0734986 0.0424335 0)
(0.0702267 0.0575942 0)
(-0.089939 0.101133 0)
(0.578559 0.325834 0)
(-0.240107 0.1218 0)
(-0.080824 0.109208 0)
(-0.12156 0.0898329 0)
(-0.138988 0.0740421 0)
(-0.153042 0.0586029 0)
(-0.163794 0.0427166 0)
(-0.171379 0.025773 0)
(-0.175581 0.00716578 0)
(-0.175637 -0.0135554 0)
(-0.170941 -0.0364841 0)
(-0.161367 -0.0614603 0)
(-0.14749 -0.0873703 0)
(-0.130497 -0.110294 0)
(-0.109522 -0.123185 0)
(-0.0820296 -0.124509 0)
(-0.0524041 -0.126319 0)
(-0.0332578 -0.123139 0)
(0.0165364 -0.0568067 0)
(0.0609484 -0.0930813 0)
(0.0685659 -0.0792643 0)
(0.0791649 -0.0589067 0)
(0.0916496 -0.0396729 0)
(0.102975 -0.0210209 0)
(0.115725 -0.0132444 0)
(0.126933 -0.00883105 0)
(0.132578 -0.00561619 0)
(0.133604 -0.00311262 0)
(0.13112 -0.000892208 0)
(0.125694 0.00127682 0)
(0.117194 0.00366179 0)
(0.104848 0.00672489 0)
(0.0855892 0.0111673 0)
(0.0716907 0.0368726 0)
(0.0603736 0.0606587 0)
(0.0764784 0.0835307 0)
(-0.117663 0.137527 0)
(0.705743 0.383671 0)
(-0.287687 0.156992 0)
(-0.0476847 0.133761 0)
(-0.0962764 0.106894 0)
(-0.107722 0.0875653 0)
(-0.11675 0.0691382 0)
(-0.123534 0.0504083 0)
(-0.128189 0.0305472 0)
(-0.130541 0.00868571 0)
(-0.129726 -0.0158514 0)
(-0.125218 -0.043099 0)
(-0.116582 -0.0726967 0)
(-0.103842 -0.102833 0)
(-0.0873403 -0.129092 0)
(-0.0673608 -0.145778 0)
(-0.0439916 -0.152238 0)
(-0.0201151 -0.152321 0)
(0.00044128 -0.143664 0)
(0.0309547 -0.11499 0)
(0.0571016 -0.109379 0)
(0.0706518 -0.0924836 0)
(0.0807606 -0.0713238 0)
(0.0908049 -0.0508797 0)
(0.100355 -0.0328448 0)
(0.10948 -0.0194511 0)
(0.116543 -0.0100706 0)
(0.120014 -0.00337847 0)
(0.120262 0.00187414 0)
(0.117895 0.0064229 0)
(0.113282 0.0107841 0)
(0.106446 0.0154701 0)
(0.0973139 0.0211823 0)
(0.0853857 0.0292193 0)
(0.0738163 0.0472707 0)
(0.0632975 0.0713776 0)
(0.0949967 0.0995607 0)
(0.0170609 0.138688 0)
(0.0967064 0.18285 0)
(0.140679 0.144657 0)
(-0.21898 0.201448 0)
(0.810452 0.431963 0)
(-0.331329 0.190658 0)
(-0.0173035 0.150222 0)
(-0.0733504 0.117493 0)
(-0.0785701 0.0954801 0)
(-0.0821878 0.0749091 0)
(-0.0844397 0.0543026 0)
(-0.0854755 0.0326774 0)
(-0.0852179 0.00881916 0)
(-0.082539 -0.0184452 0)
(-0.0773647 -0.0490505 0)
(-0.0687207 -0.0825213 0)
(-0.056694 -0.116526 0)
(-0.0415884 -0.146337 0)
(-0.0245547 -0.166016 0)
(-0.00612315 -0.17449 0)
(0.012278 -0.172706 0)
(0.0282001 -0.160951 0)
(0.0463469 -0.139282 0)
(0.0627639 -0.122329 0)
(0.0733949 -0.102509 0)
(0.0810358 -0.0804832 0)
(0.087769 -0.0591623 0)
(0.0939417 -0.0403043 0)
(0.0992869 -0.0251392 0)
(0.103011 -0.0137943 0)
(0.104664 -0.00511408 0)
(0.104293 0.00206931 0)
(0.102194 0.00853636 0)
(0.0986125 0.0148095 0)
(0.0936986 0.0214182 0)
(0.0876758 0.0289955 0)
(0.0808015 0.0384515 0)
(0.0750218 0.0529267 0)
(0.0697326 0.072968 0)
(0.0918948 0.0987037 0)
(0.0738649 0.107428 0)
(0.0908535 0.0475596 0)
(0.146693 -0.0360877 0)
(-0.324224 0.107886 0)
(0.879917 0.474674 0)
(-0.368652 0.220936 0)
(0.00372891 0.155522 0)
(-0.0526429 0.121537 0)
(-0.0521827 0.0978173 0)
(-0.0509983 0.0757847 0)
(-0.0489924 0.0540051 0)
(-0.0464769 0.0314962 0)
(-0.0432919 0.00673569 0)
(-0.0373342 -0.0223312 0)
(-0.0302555 -0.0553962 0)
(-0.0204519 -0.0919751 0)
(-0.00860523 -0.128945 0)
(0.00466475 -0.161314 0)
(0.0177753 -0.181932 0)
(0.0306079 -0.190227 0)
(0.0424414 -0.187192 0)
(0.0527504 -0.174347 0)
(0.062697 -0.153983 0)
(0.0712309 -0.132339 0)
(0.0767058 -0.109348 0)
(0.0801184 -0.0858801 0)
(0.0826808 -0.0637373 0)
(0.0849002 -0.0442707 0)
(0.086738 -0.0282018 0)
(0.0878606 -0.0154379 0)
(0.0880404 -0.00519838 0)
(0.0871266 0.00343908 0)
(0.0852949 0.0111629 0)
(0.0826862 0.0185017 0)
(0.0794654 0.0259598 0)
(0.0758996 0.0340403 0)
(0.0723795 0.0432939 0)
(0.0702746 0.054996 0)
(0.0689655 0.0695043 0)
(0.0819704 0.088497 0)
(0.0851663 0.0915514 0)
(0.0909456 0.0537386 0)
(0.181958 0.0266231 0)
(-0.279605 0.156902 0)
(0.927953 0.517133 0)
(-0.383167 0.234125 0)
(0.0169022 0.132913 0)
(-0.027302 0.116607 0)
(-0.0265205 0.0948799 0)
(-0.0227076 0.0723873 0)
(-0.0175929 0.0500631 0)
(-0.0123191 0.027212 0)
(-0.00535843 0.00182416 0)
(0.00461159 -0.0307708 0)
(0.0143383 -0.0653665 0)
(0.0256593 -0.103394 0)
(0.0373412 -0.140946 0)
(0.0480656 -0.172237 0)
(0.0572047 -0.19241 0)
(0.064735 -0.199846 0)
(0.0704766 -0.195361 0)
(0.0744281 -0.181109 0)
(0.0771001 -0.15999 0)
(0.0784133 -0.135989 0)
(0.0779957 -0.110996 0)
(0.0764332 -0.0865085 0)
(0.0745658 -0.063992 0)
(0.0729263 -0.0444422 0)
(0.071658 -0.028235 0)
(0.0706293 -0.015087 0)
(0.0696421 -0.00429657 0)
(0.0684065 0.00491842 0)
(0.0670175 0.0131476 0)
(0.0654401 0.0208854 0)
(0.0637396 0.0285657 0)
(0.0620827 0.0365466 0)
(0.0607461 0.0451131 0)
(0.0605732 0.0547071 0)
(0.0614024 0.0652199 0)
(0.0700163 0.0780928 0)
(0.0799924 0.0806059 0)
(0.0813436 0.059669 0)
(0.239596 0.0556838 0)
(-0.541767 0.234597 0)
(1.01131 0.506777 0)
(-0.1371 0.29631 0)
(0.0411022 0.161464 0)
(0.040654 0.122014 0)
(0.0131355 0.0919071 0)
(0.00871561 0.0653031 0)
(0.0141443 0.0413324 0)
(0.0207733 0.0169255 0)
(0.032579 -0.0110682 0)
(0.0440466 -0.0421918 0)
(0.0559307 -0.0769664 0)
(0.0682321 -0.114728 0)
(0.0794061 -0.151228 0)
(0.0879473 -0.180705 0)
(0.0932034 -0.198703 0)
(0.0952798 -0.203808 0)
(0.0945792 -0.197082 0)
(0.0916456 -0.180967 0)
(0.0871555 -0.158524 0)
(0.0815624 -0.133078 0)
(0.075166 -0.107062 0)
(0.0685741 -0.082293 0)
(0.0625182 -0.0601212 0)
(0.057529 -0.041268 0)
(0.0538084 -0.0258166 0)
(0.051261 -0.0132672 0)
(0.0496178 -0.00283782 0)
(0.04848 0.00617555 0)
(0.0477978 0.0142871 0)
(0.0473331 0.0219502 0)
(0.0470144 0.0295162 0)
(0.0468588 0.0372235 0)
(0.0469473 0.0451921 0)
(0.0476412 0.053482 0)
(0.0488092 0.0616532 0)
(0.0539315 0.0696405 0)
(0.0635434 0.0664313 0)
(0.0598483 0.0346607 0)
(0.286709 0.0697086 0)
(-0.752628 0.308678 0)
(0.779326 0.395599 0)
(0.000976167 0.319429 0)
(0.0934397 0.21886 0)
(0.110676 0.155093 0)
(0.0772451 0.106731 0)
(0.059862 0.06745 0)
(0.0582837 0.0356696 0)
(0.0624584 0.0063293 0)
(0.0738926 -0.0235077 0)
(0.0854744 -0.0551129 0)
(0.0976877 -0.0898428 0)
(0.10958 -0.126393 0)
(0.118987 -0.160218 0)
(0.124124 -0.185944 0)
(0.124383 -0.19998 0)
(0.120187 -0.2015 0)
(0.112481 -0.191885 0)
(0.102336 -0.173706 0)
(0.0907904 -0.150012 0)
(0.0786856 -0.123845 0)
(0.066715 -0.0977482 0)
(0.0556174 -0.073635 0)
(0.0461307 -0.0527535 0)
(0.0387454 -0.035547 0)
(0.033587 -0.0217999 0)
(0.0304303 -0.0107246 0)
(0.0288168 -0.00139735 0)
(0.0282733 0.00682965 0)
(0.0285001 0.0144202 0)
(0.0291476 0.0217588 0)
(0.0300538 0.0291034 0)
(0.0311047 0.0366214 0)
(0.0321562 0.0444021 0)
(0.0330101 0.0524889 0)
(0.0326165 0.0606624 0)
(0.0306386 0.0688906 0)
(0.0149658 0.0717697 0)
(0.00174777 0.103348 0)
(0.0110236 0.177947 0)
(-0.640244 0.297287 0)
(0.617241 0.220601 0)
(0.00475322 0.298011 0)
(0.113061 0.241483 0)
(0.148346 0.177466 0)
(0.130923 0.123393 0)
(0.117907 0.0777094 0)
(0.115052 0.0387684 0)
(0.117229 0.0032811 0)
(0.123603 -0.0308213 0)
(0.131842 -0.0651029 0)
(0.141549 -0.100615 0)
(0.150457 -0.135537 0)
(0.155621 -0.165458 0)
(0.155102 -0.186005 0)
(0.148583 -0.194856 0)
(0.136957 -0.192039 0)
(0.121692 -0.179319 0)
(0.104284 -0.159289 0)
(0.0861053 -0.134879 0)
(0.0682532 -0.108883 0)
(0.0516747 -0.0837961 0)
(0.0372478 -0.0614829 0)
(0.02574 -0.043046 0)
(0.0174753 -0.0285489 0)
(0.0122898 -0.0173919 0)
(0.00955937 -0.00840369 0)
(0.00857372 -0.00058412 0)
(0.00887831 0.00660505 0)
(0.00997306 0.0135286 0)
(0.0115763 0.0204565 0)
(0.0135209 0.0275568 0)
(0.015647 0.0349838 0)
(0.0177181 0.0429347 0)
(0.0193452 0.0517567 0)
(0.0194329 0.0620756 0)
(0.017118 0.0757834 0)
(-0.00602242 0.0988209 0)
(-0.00635202 0.154005 0)
(0.0426703 0.185501 0)
(-0.542547 0.160773 0)
(0.570783 0.118218 0)
(-0.0203202 0.258511 0)
(0.113692 0.229821 0)
(0.165049 0.175961 0)
(0.166736 0.126053 0)
(0.164421 0.0809563 0)
(0.16543 0.0398323 0)
(0.168377 0.00149759 0)
(0.17234 -0.0355056 0)
(0.17792 -0.0720179 0)
(0.184106 -0.10771 0)
(0.187824 -0.139814 0)
(0.186051 -0.164421 0)
(0.177401 -0.178679 0)
(0.162317 -0.181779 0)
(0.142339 -0.174621 0)
(0.119397 -0.159252 0)
(0.0952376 -0.138133 0)
(0.0714509 -0.114002 0)
(0.0492423 -0.089356 0)
(0.0297779 -0.0666116 0)
(0.0140582 -0.0475097 0)
(0.00275248 -0.0328462 0)
(-0.00443726 -0.0219119 0)
(-0.00820144 -0.0138508 0)
(-0.00986591 -0.00701399 0)
(-0.0100807 -0.000665936 0)
(-0.00912665 0.00551791 0)
(-0.00745373 0.0117518 0)
(-0.00518947 0.0181901 0)
(-0.0024689 0.0249428 0)
(0.000616325 0.0322356 0)
(0.00390136 0.0403345 0)
(0.00717355 0.0498277 0)
(0.00995034 0.062166 0)
(0.0126885 0.0809069 0)
(0.001482 0.11416 0)
(-0.00873697 0.179326 0)
(0.151793 0.20081 0)
(-0.451742 0.0998685 0)
(0.628459 0.0535352 0)
(0.00897699 0.197242 0)
(0.113695 0.19688 0)
(0.175035 0.157812 0)
(0.191328 0.11753 0)
(0.19803 0.0770989 0)
(0.2034 0.0371025 0)
(0.208626 -0.00166288 0)
(0.213133 -0.0397857 0)
(0.217443 -0.0766456 0)
(0.219271 -0.110099 0)
(0.215461 -0.136972 0)
(0.204118 -0.15462 0)
(0.185331 -0.162019 0)
(0.160715 -0.159718 0)
(0.132431 -0.149126 0)
(0.10271 -0.132324 0)
(0.0732489 -0.111429 0)
(0.0458098 -0.0889869 0)
(0.021516 -0.067162 0)
(0.00195636 -0.0483628 0)
(-0.0119463 -0.034184 0)
(-0.020169 -0.0247188 0)
(-0.0248347 -0.0177101 0)
(-0.0271379 -0.011936 0)
(-0.0279283 -0.00660598 0)
(-0.0275921 -0.00136222 0)
(-0.0262439 0.00397695 0)
(-0.0242187 0.00953704 0)
(-0.0215437 0.0154215 0)
(-0.0183412 0.0217128 0)
(-0.0146893 0.0285726 0)
(-0.0106125 0.0363034 0)
(-0.00607259 0.0455233 0)
(-0.00131307 0.0582084 0)
(0.00361959 0.080113 0)
(0.0027062 0.113809 0)
(-0.00743742 0.166442 0)
(0.189402 0.19381 0)
(-0.358224 0.151777 0)
(0.4725 0.074839 0)
(-0.132317 0.137495 0)
(0.0941323 0.133148 0)
(0.172609 0.116609 0)
(0.203752 0.095122 0)
(0.218084 0.0641635 0)
(0.228106 0.028176 0)
(0.237186 -0.00912853 0)
(0.243551 -0.0454316 0)
(0.24504 -0.0783742 0)
(0.239056 -0.105297 0)
(0.224247 -0.124108 0)
(0.201138 -0.133912 0)
(0.171651 -0.135128 0)
(0.138364 -0.128995 0)
(0.103568 -0.116792 0)
(0.0695418 -0.100376 0)
(0.0374632 -0.0813846 0)
(0.00966662 -0.0623464 0)
(-0.0133284 -0.0450741 0)
(-0.02787 -0.0334693 0)
(-0.0369064 -0.0255597 0)
(-0.0421031 -0.019865 0)
(-0.0449937 -0.0151733 0)
(-0.0463241 -0.010922 0)
(-0.0464989 -0.00674535 0)
(-0.0457152 -0.00244444 0)
(-0.0439941 0.00211918 0)
(-0.0416846 0.0070195 0)
(-0.0387495 0.0123486 0)
(-0.0353588 0.018202 0)
(-0.031703 0.0247054 0)
(-0.0279601 0.0321017 0)
(-0.0243064 0.0411558 0)
(-0.0216794 0.0549535 0)
(-0.0214899 0.0781053 0)
(-0.0214174 0.103876 0)
(-0.0198701 0.126101 0)
(0.189387 0.169542 0)
(-0.400012 0.215143 0)
(0.724015 0.13454 0)
(0.0819538 0.115265 0)
(0.149742 0.0991122 0)
(0.222354 0.0802737 0)
(0.244032 0.0696475 0)
(0.248863 0.0473823 0)
(0.255175 0.0173204 0)
(0.261251 -0.0148436 0)
(0.260226 -0.0447954 0)
(0.249683 -0.0696406 0)
(0.229403 -0.0876631 0)
(0.200981 -0.0983515 0)
(0.166808 -0.101969 0)
(0.129452 -0.0994882 0)
(0.0914103 -0.0921482 0)
(0.0541335 -0.0806257 0)
(0.0202475 -0.0665503 0)
(-0.010669 -0.0510432 0)
(-0.0328771 -0.0387373 0)
(-0.0478177 -0.0300451 0)
(-0.0569656 -0.0243866 0)
(-0.062581 -0.0202339 0)
(-0.0659726 -0.0168165 0)
(-0.06789 -0.0136641 0)
(-0.0686453 -0.0105776 0)
(-0.0683841 -0.00739685 0)
(-0.0671827 -0.00396426 0)
(-0.0650516 -0.000108999 0)
(-0.0623168 0.00423488 0)
(-0.059126 0.00914896 0)
(-0.0556487 0.0148203 0)
(-0.0523449 0.0214776 0)
(-0.0498544 0.0296083 0)
(-0.0487382 0.0405428 0)
(-0.0499936 0.0574144 0)
(-0.0573124 0.0821442 0)
(-0.0686842 0.105579 0)
(-0.0575043 0.120081 0)
(0.0124524 0.166322 0)
(-0.499017 0.232664 0)
(0.1922 0.0879123 0)
(0.225983 0.0995879 0)
(0.246719 0.069854 0)
(0.242764 0.0395335 0)
(0.239863 0.0119803 0)
(0.234769 -0.0128763 0)
(0.219965 -0.033278 0)
(0.196174 -0.0484536 0)
(0.165758 -0.0583707 0)
(0.131198 -0.0634477 0)
(0.0943189 -0.063961 0)
(0.0571262 -0.0606308 0)
(0.0215683 -0.0542933 0)
(-0.0129508 -0.0450602 0)
(-0.0397844 -0.0361241 0)
(-0.0599572 -0.0287661 0)
(-0.0735706 -0.0239076 0)
(-0.0824549 -0.020686 0)
(-0.088297 -0.0183819 0)
(-0.0923216 -0.0163208 0)
(-0.0950759 -0.0143287 0)
(-0.0967833 -0.0123471 0)
(-0.097514 -0.0103206 0)
(-0.0972786 -0.00814179 0)
(-0.0960594 -0.00564814 0)
(-0.0938183 -0.00262371 0)
(-0.0904426 0.00114519 0)
(-0.08659 0.00575763 0)
(-0.0823316 0.011454 0)
(-0.0781667 0.0187206 0)
(-0.0748601 0.0283217 0)
(-0.0726648 0.0417186 0)
(-0.0714093 0.0614521 0)
(-0.0753914 0.0896914 0)
(-0.0867695 0.122295 0)
(-0.0743234 0.145065 0)
(-0.0821082 0.143516 0)
(-0.578689 0.105866 0)
(0.451705 0.209106 0)
(0.207369 0.178459 0)
(0.153483 0.118648 0)
(0.140068 0.0639864 0)
(0.128461 0.0259592 0)
(0.11416 0.00196721 0)
(0.0987246 -0.0127372 0)
(0.0775836 -0.0219188 0)
(0.0528034 -0.0276903 0)
(0.025577 -0.0304236 0)
(-0.00426148 -0.0300361 0)
(-0.0331019 -0.0274895 0)
(-0.0585179 -0.0240089 0)
(-0.0795621 -0.0205949 0)
(-0.0950481 -0.018312 0)
(-0.105912 -0.0167452 0)
(-0.11348 -0.0156137 0)
(-0.119186 -0.014354 0)
(-0.123801 -0.0128993 0)
(-0.127598 -0.0113557 0)
(-0.130613 -0.00987594 0)
(-0.13282 -0.00854713 0)
(-0.134171 -0.00738772 0)
(-0.134587 -0.00635301 0)
(-0.133928 -0.00532108 0)
(-0.131989 -0.00404402 0)
(-0.128523 -0.00210697 0)
(-0.123231 0.00102165 0)
(-0.116727 0.0058405 0)
(-0.109824 0.0128678 0)
(-0.102809 0.0229852 0)
(-0.0955593 0.0374093 0)
(-0.086252 0.0577544 0)
(-0.0744378 0.0859876 0)
(-0.0638682 0.123742 0)
(-0.0377078 0.165668 0)
(0.0961915 0.15895 0)
(-0.491742 0.0174538 0)
(0.363515 -0.412696 0)
(-0.345338 -0.512422 0)
(-0.218616 -0.0288453 0)
(-0.0922742 0.110665 0)
(-0.0532174 0.092669 0)
(-0.0310213 0.0548657 0)
(-0.0263205 0.0288519 0)
(-0.0314699 0.0121892 0)
(-0.0405128 0.00137058 0)
(-0.0511048 -0.00581781 0)
(-0.0647494 -0.0103453 0)
(-0.0801483 -0.0129372 0)
(-0.0959757 -0.0147789 0)
(-0.110951 -0.0169139 0)
(-0.123842 -0.0194879 0)
(-0.133681 -0.0222227 0)
(-0.140619 -0.0247467 0)
(-0.145877 -0.0265364 0)
(-0.150568 -0.0276568 0)
(-0.155213 -0.0282659 0)
(-0.159821 -0.0284892 0)
(-0.1642 -0.0283755 0)
(-0.168131 -0.0279387 0)
(-0.171433 -0.0271751 0)
(-0.173954 -0.0260756 0)
(-0.175525 -0.0246228 0)
(-0.1759 -0.0227703 0)
(-0.174737 -0.020402 0)
(-0.171646 -0.017264 0)
(-0.166297 -0.0128916 0)
(-0.158479 -0.00660368 0)
(-0.148269 0.0023403 0)
(-0.136783 0.0143635 0)
(-0.124144 0.0293101 0)
(-0.107685 0.0472051 0)
(-0.0839876 0.0682398 0)
(-0.0526918 0.0930963 0)
(-0.0125394 0.126004 0)
(0.166457 0.132816 0)
(-0.403755 0.076928 0)
(0.125339 -0.184167 0)
(-0.386951 -0.297046 0)
(-0.342626 -0.096886 0)
(-0.264399 0.051122 0)
(-0.210747 0.0834691 0)
(-0.178624 0.0746755 0)
(-0.162326 0.0612591 0)
(-0.156301 0.0513003 0)
(-0.156349 0.0460694 0)
(-0.159613 0.045329 0)
(-0.164145 0.0482025 0)
(-0.168313 0.0533937 0)
(-0.171514 0.0595424 0)
(-0.173622 0.0644806 0)
(-0.175262 0.0662875 0)
(-0.177099 0.0660962 0)
(-0.179665 0.0655299 0)
(-0.182932 0.0657045 0)
(-0.186581 0.0665405 0)
(-0.190307 0.0674707 0)
(-0.193893 0.0679682 0)
(-0.1972 0.0677022 0)
(-0.200139 0.0665102 0)
(-0.202647 0.0643299 0)
(-0.204664 0.0611063 0)
(-0.206115 0.0567257 0)
(-0.206891 0.051053 0)
(-0.206846 0.0441049 0)
(-0.205805 0.0362669 0)
(-0.203567 0.0283769 0)
(-0.199844 0.0215716 0)
(-0.194095 0.0169814 0)
(-0.18494 0.0153785 0)
(-0.17118 0.0168453 0)
(-0.153754 0.0197287 0)
(-0.128829 0.022197 0)
(-0.0909327 0.0212414 0)
(-0.0357972 0.0233753 0)
(0.175494 0.0702106 0)
(-0.405232 0.133352 0)
(1.14625 -0.011018 0)
(-0.29403 -0.322114 0)
(-0.352404 -0.233225 0)
(-0.351775 -0.148885 0)
(-0.328145 -0.107478 0)
(-0.296408 -0.0987565 0)
(-0.268884 -0.100789 0)
(-0.248675 -0.106315 0)
(-0.234867 -0.113828 0)
(-0.225531 -0.123458 0)
(-0.219031 -0.135688 0)
(-0.21437 -0.150533 0)
(-0.211106 -0.166506 0)
(-0.209244 -0.180414 0)
(-0.209164 -0.1891 0)
(-0.211136 -0.19306 0)
(-0.214622 -0.193642 0)
(-0.218758 -0.192572 0)
(-0.222817 -0.190937 0)
(-0.226451 -0.189137 0)
(-0.229643 -0.187183 0)
(-0.232576 -0.18492 0)
(-0.235516 -0.182133 0)
(-0.23874 -0.17859 0)
(-0.242518 -0.174081 0)
(-0.247144 -0.168423 0)
(-0.252984 -0.161444 0)
(-0.260446 -0.152923 0)
(-0.269803 -0.142545 0)
(-0.28087 -0.129929 0)
(-0.292662 -0.114749 0)
(-0.303309 -0.096911 0)
(-0.310382 -0.0766719 0)
(-0.311182 -0.0548876 0)
(-0.303636 -0.0333656 0)
(-0.288975 -0.014534 0)
(-0.262322 0.00327792 0)
(-0.214071 0.0296645 0)
(-0.188649 0.0786568 0)
(-0.57232 0.140991 0)
)
;

boundaryField
{
    floor
    {
        type            noSlip;
    }
    ceiling
    {
        type            noSlip;
    }
    sWall
    {
        type            noSlip;
    }
    nWall
    {
        type            noSlip;
    }
    sideWalls
    {
        type            empty;
    }
    glass1
    {
        type            noSlip;
    }
    glass2
    {
        type            noSlip;
    }
    sun
    {
        type            noSlip;
    }
    Table_master
    {
        type            noSlip;
    }
    Table_slave
    {
        type            noSlip;
    }
    inlet
    {
        type            fixedValue;
        value           uniform (0.5 0 0);
    }
    outlet
    {
        type            zeroGradient;
    }
}


// ************************************************************************* //
