/*--------------------------------*- C++ -*----------------------------------*\
  =========                 |
  \\      /  F ield         | OpenFOAM: The Open Source CFD Toolbox
   \\    /   O peration     | Website:  https://openfoam.org
    \\  /    A nd           | Version:  6
     \\/     M anipulation  |
\*---------------------------------------------------------------------------*/
FoamFile
{
    version     2.0;
    format      ascii;
    class       volVectorField;
    location    "2010";
    object      U;
}
// * * * * * * * * * * * * * * * * * * * * * * * * * * * * * * * * * * * * * //

dimensions      [0 1 -1 0 0 0 0];

internalField   nonuniform List<vector> 
458
(
(0.0348278 0.0885214 0)
(-0.172079 0.026583 0)
(-0.199345 0.019113 0)
(-0.233219 0.0130812 0)
(-0.258392 0.0064142 0)
(-0.273596 -0.00080399 0)
(-0.276727 -0.00877685 0)
(-0.265482 -0.0177762 0)
(-0.239427 -0.0274246 0)
(-0.199719 -0.036109 0)
(-0.150456 -0.0420489 0)
(-0.0978414 -0.0436495 0)
(-0.0487413 -0.0390812 0)
(-0.00628376 -0.023691 0)
(-0.0102714 0.00976805 0)
(-0.0102344 0.0105102 0)
(-0.0372542 -0.0174915 0)
(-0.0145036 -0.0291093 0)
(0.0136842 -0.0251838 0)
(0.0334518 -0.0178887 0)
(0.0480681 -0.00955469 0)
(0.0568268 -0.00517652 0)
(0.0607049 -0.00363272 0)
(0.0621401 -0.00308302 0)
(0.0627892 -0.00276004 0)
(0.0630988 -0.00250965 0)
(0.0630379 -0.00224185 0)
(0.0624403 -0.00179766 0)
(0.0608484 -0.000838721 0)
(0.0572457 0.00107497 0)
(0.0505248 0.0031716 0)
(0.0451173 0.00508791 0)
(-0.0141434 0.0219495 0)
(0.214277 0.181888 0)
(-0.162148 0.0709909 0)
(-0.162939 0.0577612 0)
(-0.198654 0.0457428 0)
(-0.22413 0.0319884 0)
(-0.240106 0.0161767 0)
(-0.24461 -0.00240767 0)
(-0.235116 -0.023963 0)
(-0.21187 -0.046165 0)
(-0.176491 -0.0649216 0)
(-0.133364 -0.0764225 0)
(-0.0881373 -0.0781967 0)
(-0.046271 -0.0687307 0)
(-0.0100399 -0.0460237 0)
(0.0193994 -0.0133891 0)
(0.044232 0.00784494 0)
(0.0548412 0.0347563 0)
(-0.0118151 0.070682 0)
(0.0670426 0.0439773 0)
(0.0103044 -0.0218335 0)
(0.0265262 -0.0379001 0)
(0.0407553 -0.0356452 0)
(0.0531442 -0.0273396 0)
(0.0595668 -0.012092 0)
(0.0611869 -0.00275276 0)
(0.0612364 0.000746032 0)
(0.061401 0.00202343 0)
(0.0617262 0.00272237 0)
(0.0619513 0.003222 0)
(0.0620087 0.00367512 0)
(0.0619046 0.00440759 0)
(0.0611933 0.00620605 0)
(0.0577962 0.0112255 0)
(0.0491042 0.0155357 0)
(0.0476955 0.0187082 0)
(-0.0584229 0.0475529 0)
(0.379539 0.272954 0)
(-0.180118 0.113731 0)
(-0.123511 0.0941075 0)
(-0.159195 0.0724335 0)
(-0.182597 0.0495031 0)
(-0.198408 0.0236444 0)
(-0.204061 -0.00653122 0)
(-0.195374 -0.0409736 0)
(-0.173594 -0.0757731 0)
(-0.14143 -0.103641 0)
(-0.103849 -0.118946 0)
(-0.0659044 -0.119152 0)
(-0.0318328 -0.104119 0)
(-0.00228847 -0.0744036 0)
(0.0220193 -0.0400802 0)
(0.0375858 -0.0152253 0)
(0.0431698 0.0131574 0)
(-0.0236716 0.0623126 0)
(0.122494 -0.00754944 0)
(0.0725117 -0.0321012 0)
(0.0643146 -0.0419337 0)
(0.0672643 -0.041758 0)
(0.0718749 -0.0380426 0)
(0.0734944 -0.0282262 0)
(0.0643721 -0.0183279 0)
(0.0574182 -0.0130262 0)
(0.0548198 -0.0100781 0)
(0.0541287 -0.00818553 0)
(0.0538948 -0.00689719 0)
(0.0539653 -0.00590231 0)
(0.0547648 -0.00475308 0)
(0.0572164 -0.00139802 0)
(0.0561108 0.0149961 0)
(0.0445937 0.0258735 0)
(0.0541341 0.0332531 0)
(-0.0993697 0.0727992 0)
(0.530034 0.34665 0)
(-0.216671 0.151752 0)
(-0.0801991 0.125834 0)
(-0.115538 0.0962955 0)
(-0.133417 0.0672242 0)
(-0.146929 0.0337651 0)
(-0.152515 -0.00710657 0)
(-0.142622 -0.055046 0)
(-0.121291 -0.102298 0)
(-0.0929841 -0.137829 0)
(-0.0625385 -0.155416 0)
(-0.03358 -0.153422 0)
(-0.00880661 -0.133438 0)
(0.0128557 -0.097927 0)
(0.0304217 -0.0589786 0)
(0.0443452 -0.0229035 0)
(0.059944 0.0131416 0)
(0.0588122 0.053431 0)
(0.100326 0.0614985 0)
(0.0988116 -0.0024513 0)
(0.0851462 -0.0293966 0)
(0.078463 -0.0376946 0)
(0.073613 -0.0383957 0)
(0.0670191 -0.0341072 0)
(0.0666012 -0.0208381 0)
(0.077277 -0.0138297 0)
(0.0862395 -0.0101067 0)
(0.091638 -0.00782363 0)
(0.0948768 -0.00591589 0)
(0.0962823 -0.00385489 0)
(0.0945134 -0.00118949 0)
(0.0882505 0.00248085 0)
(0.0757073 0.00774346 0)
(0.0597948 0.0251007 0)
(0.0440598 0.0405883 0)
(0.062976 0.0533512 0)
(-0.131379 0.0942853 0)
(0.662688 0.403808 0)
(-0.262356 0.182675 0)
(-0.0350346 0.145255 0)
(-0.0687506 0.111318 0)
(-0.0779475 0.0792334 0)
(-0.086295 0.041252 0)
(-0.0890508 -0.00798214 0)
(-0.0740327 -0.0688045 0)
(-0.0534872 -0.12589 0)
(-0.0315844 -0.165061 0)
(-0.0112806 -0.181832 0)
(0.00615574 -0.175985 0)
(0.0193194 -0.151481 0)
(0.0303363 -0.114541 0)
(0.0401848 -0.0729626 0)
(0.0494279 -0.0337292 0)
(0.0619257 0.000666582 0)
(0.076029 0.0197061 0)
(0.0903185 -0.000578762 0)
(0.0896761 -0.0213828 0)
(0.0826094 -0.0300417 0)
(0.073803 -0.0325547 0)
(0.0655593 -0.0316322 0)
(0.0586163 -0.0266333 0)
(0.0568361 -0.0155121 0)
(0.0603903 -0.00902634 0)
(0.0647319 -0.00637156 0)
(0.0684552 -0.00482893 0)
(0.0716978 -0.00274864 0)
(0.0742045 0.000782157 0)
(0.0750534 0.00596925 0)
(0.0731588 0.0129873 0)
(0.0682491 0.0224384 0)
(0.0612021 0.0371791 0)
(0.0500508 0.0536328 0)
(0.074856 0.0727533 0)
(-0.00684725 0.101389 0)
(0.0557852 0.150675 0)
(-0.0835233 0.0748374 0)
(-0.277797 0.000485276 0)
(0.761895 0.451323 0)
(-0.308553 0.203337 0)
(0.00242863 0.143884 0)
(-0.0205865 0.116258 0)
(-0.0197931 0.0857223 0)
(-0.0215028 0.0472971 0)
(-0.0143183 -0.00693183 0)
(0.0103094 -0.0859136 0)
(0.0269197 -0.146181 0)
(0.0388223 -0.182412 0)
(0.0460434 -0.194544 0)
(0.0488922 -0.185045 0)
(0.0486274 -0.158118 0)
(0.0472215 -0.119919 0)
(0.046046 -0.0779421 0)
(0.0464609 -0.0397122 0)
(0.0508116 -0.00999828 0)
(0.0599598 0.00481471 0)
(0.0662359 -0.00106149 0)
(0.0649822 -0.0110231 0)
(0.0585966 -0.0188144 0)
(0.0504261 -0.0229172 0)
(0.0427889 -0.0236649 0)
(0.036814 -0.021137 0)
(0.0342637 -0.0157718 0)
(0.0354139 -0.0122948 0)
(0.0383684 -0.0108629 0)
(0.042025 -0.00977435 0)
(0.0460851 -0.00763782 0)
(0.0502677 -0.00338321 0)
(0.054478 0.00368524 0)
(0.0569946 0.0131877 0)
(0.0581605 0.024945 0)
(0.0592853 0.0395794 0)
(0.0583616 0.0560023 0)
(0.0797053 0.0766992 0)
(0.0654448 0.0889902 0)
(0.0997208 0.0967343 0)
(0.117478 0.0571987 0)
(-0.136898 -0.029931 0)
(0.815617 0.494188 0)
(-0.334125 0.187369 0)
(0.0322386 0.0937993 0)
(0.0390596 0.101055 0)
(0.045927 0.0830013 0)
(0.0516187 0.0393734 0)
(0.0790906 -0.0311648 0)
(0.103103 -0.103694 0)
(0.113281 -0.157006 0)
(0.112859 -0.186321 0)
(0.104581 -0.192424 0)
(0.0907912 -0.178771 0)
(0.0740962 -0.149767 0)
(0.0575019 -0.111562 0)
(0.0429698 -0.0709106 0)
(0.0326117 -0.0356987 0)
(0.0280937 -0.0107629 0)
(0.029493 0.000982097 0)
(0.0311281 -0.000289994 0)
(0.0296265 -0.00657797 0)
(0.0249748 -0.0126383 0)
(0.0188557 -0.0163759 0)
(0.0128306 -0.0177474 0)
(0.00802498 -0.0171079 0)
(0.00566472 -0.0151978 0)
(0.00600765 -0.0141027 0)
(0.00804758 -0.0139685 0)
(0.0110464 -0.0137421 0)
(0.0148421 -0.0123608 0)
(0.0195201 -0.00873843 0)
(0.0256893 -0.00163362 0)
(0.0332982 0.0088706 0)
(0.0400642 0.0208914 0)
(0.0478729 0.0341611 0)
(0.0558723 0.0479613 0)
(0.0754485 0.0644594 0)
(0.0882303 0.069774 0)
(0.11967 0.0632103 0)
(0.163391 0.0513045 0)
(-0.0203489 0.0954865 0)
(0.921873 0.497287 0)
(-0.0766827 0.167418 0)
(0.110605 0.0261617 0)
(0.163733 0.0227953 0)
(0.161394 0.015551 0)
(0.162858 -0.0293566 0)
(0.196481 -0.0804035 0)
(0.211265 -0.125535 0)
(0.205356 -0.15827 0)
(0.18509 -0.173975 0)
(0.155588 -0.171669 0)
(0.121091 -0.15397 0)
(0.0852965 -0.124272 0)
(0.0523691 -0.0880723 0)
(0.0244603 -0.0510568 0)
(0.00511096 -0.0219289 0)
(-0.00463692 -0.0044335 0)
(-0.00656438 0.0017499 0)
(-0.00644589 0.000653694 0)
(-0.00764687 -0.00367232 0)
(-0.010947 -0.00802131 0)
(-0.0154454 -0.0110842 0)
(-0.0200795 -0.0128531 0)
(-0.0239435 -0.0136883 0)
(-0.0263252 -0.0141384 0)
(-0.0272164 -0.0148887 0)
(-0.02718 -0.0158718 0)
(-0.0265979 -0.0165848 0)
(-0.02547 -0.0164984 0)
(-0.0234903 -0.0150351 0)
(-0.0198645 -0.0114638 0)
(-0.0117108 -0.0049073 0)
(-9.76484e-05 0.00446097 0)
(0.0110829 0.0137619 0)
(0.0226864 0.0208669 0)
(0.0398974 0.0277383 0)
(0.0554288 0.0224402 0)
(0.0795694 0.00564793 0)
(0.146408 0.0479768 0)
(-0.428339 0.212665 0)
(1.06591 0.444167 0)
(0.518239 0.298302 0)
(0.529533 0.24986 0)
(0.518389 0.182909 0)
(0.469833 0.122442 0)
(0.433151 0.0601168 0)
(0.392042 -0.0074186 0)
(0.34284 -0.0669741 0)
(0.289084 -0.107857 0)
(0.232748 -0.126607 0)
(0.17537 -0.125097 0)
(0.118914 -0.10891 0)
(0.0654678 -0.0822835 0)
(0.0202454 -0.0512578 0)
(-0.0160982 -0.0208372 0)
(-0.0329483 -0.00607022 0)
(-0.0401262 0.0004372 0)
(-0.041683 0.00219921 0)
(-0.0420616 0.000998922 0)
(-0.0432037 -0.00164886 0)
(-0.0458322 -0.00452581 0)
(-0.0494816 -0.00705226 0)
(-0.0535071 -0.00914066 0)
(-0.0573722 -0.0108681 0)
(-0.06082 -0.012369 0)
(-0.0640133 -0.0137495 0)
(-0.0673558 -0.0148471 0)
(-0.0712233 -0.0153029 0)
(-0.0759695 -0.0146318 0)
(-0.0820676 -0.0121809 0)
(-0.0902097 -0.00711318 0)
(-0.10112 0.00143016 0)
(-0.112753 0.0133236 0)
(-0.127985 0.0284151 0)
(-0.152908 0.0467851 0)
(-0.190232 0.0673936 0)
(-0.241634 0.0862248 0)
(-0.297564 0.0999166 0)
(-0.371648 0.106909 0)
(-0.650669 0.1063 0)
(0.233923 0.0528357 0)
(0.30589 0.115968 0)
(0.321217 0.0913735 0)
(0.299643 0.0395837 0)
(0.275046 -0.0105978 0)
(0.244389 -0.0469357 0)
(0.203102 -0.0684102 0)
(0.15401 -0.0754149 0)
(0.100447 -0.0686995 0)
(0.0461767 -0.0529172 0)
(-0.00861775 -0.0295115 0)
(-0.0451278 -0.0114851 0)
(-0.0635902 -0.00312542 0)
(-0.0709204 -0.000753832 0)
(-0.073155 -0.000288314 0)
(-0.0734723 -0.000989764 0)
(-0.0737736 -0.00259152 0)
(-0.0749113 -0.00468591 0)
(-0.0771278 -0.0067725 0)
(-0.080384 -0.00855149 0)
(-0.0841813 -0.0100223 0)
(-0.0882897 -0.0111434 0)
(-0.09272 -0.0119175 0)
(-0.0976258 -0.0123112 0)
(-0.103158 -0.0121342 0)
(-0.109349 -0.0110415 0)
(-0.116067 -0.00856369 0)
(-0.122968 -0.00415704 0)
(-0.12943 0.00273961 0)
(-0.134403 0.0123377 0)
(-0.13837 0.0256185 0)
(-0.141807 0.0431802 0)
(-0.146017 0.0642232 0)
(-0.151772 0.0850523 0)
(-0.155357 0.0955482 0)
(-0.141302 0.0734015 0)
(-0.110243 -0.025009 0)
(-0.286611 -0.213742 0)
(0.120027 0.324338 0)
(0.00839234 0.203596 0)
(0.039268 0.118453 0)
(0.0584836 0.0604385 0)
(0.0631334 0.021626 0)
(0.0601202 -0.00478593 0)
(0.0402079 -0.0199141 0)
(0.00543348 -0.0189591 0)
(-0.036585 -0.00172421 0)
(-0.0701084 0.0128766 0)
(-0.091223 0.0208831 0)
(-0.100236 0.0232703 0)
(-0.102455 0.0233963 0)
(-0.102399 0.0234433 0)
(-0.101526 0.0241523 0)
(-0.100495 0.025278 0)
(-0.0997743 0.0264191 0)
(-0.0996485 0.0271692 0)
(-0.100175 0.0271035 0)
(-0.101319 0.0258993 0)
(-0.103115 0.0238691 0)
(-0.105493 0.0216265 0)
(-0.108386 0.0194477 0)
(-0.111705 0.0174793 0)
(-0.115313 0.0158311 0)
(-0.118997 0.0146123 0)
(-0.122446 0.01396 0)
(-0.125177 0.0140309 0)
(-0.126373 0.015522 0)
(-0.124866 0.0198905 0)
(-0.119076 0.028297 0)
(-0.107619 0.0417414 0)
(-0.0903513 0.060242 0)
(-0.0683164 0.080426 0)
(-0.0434453 0.0948381 0)
(-0.00758232 0.0857772 0)
(0.14694 0.00930391 0)
(-0.209928 -0.129685 0)
(-0.422122 -0.516032 0)
(-0.63732 -0.143275 0)
(-0.449398 0.177763 0)
(-0.357931 0.0560833 0)
(-0.213893 -0.00553636 0)
(-0.145602 -0.0477885 0)
(-0.117155 -0.0705405 0)
(-0.112975 -0.0713638 0)
(-0.122335 -0.0626879 0)
(-0.134854 -0.0549729 0)
(-0.140339 -0.0504981 0)
(-0.138578 -0.0490541 0)
(-0.134111 -0.0499346 0)
(-0.12892 -0.0527545 0)
(-0.124448 -0.0562872 0)
(-0.121 -0.0599433 0)
(-0.118203 -0.0635979 0)
(-0.115797 -0.0672996 0)
(-0.113736 -0.0709021 0)
(-0.112093 -0.0739147 0)
(-0.111 -0.0756885 0)
(-0.110617 -0.0757907 0)
(-0.111048 -0.0743589 0)
(-0.112257 -0.0719886 0)
(-0.114069 -0.068917 0)
(-0.116261 -0.0652768 0)
(-0.11855 -0.0610887 0)
(-0.120568 -0.0562791 0)
(-0.121833 -0.0506326 0)
(-0.121712 -0.043802 0)
(-0.119188 -0.0358143 0)
(-0.112354 -0.0266896 0)
(-0.0984064 -0.0158829 0)
(-0.0748444 -0.00248672 0)
(-0.0415504 0.0143637 0)
(0.00931744 0.0362844 0)
(0.061867 0.0423467 0)
(0.109599 0.0240438 0)
(0.172058 -0.0159438 0)
(-0.19629 -0.082686 0)
)
;

boundaryField
{
    floor
    {
        type            noSlip;
    }
    ceiling
    {
        type            noSlip;
    }
    sWall
    {
        type            noSlip;
    }
    nWall
    {
        type            noSlip;
    }
    sideWalls
    {
        type            empty;
    }
    glass1
    {
        type            noSlip;
    }
    glass2
    {
        type            noSlip;
    }
    sun
    {
        type            noSlip;
    }
    Table_master
    {
        type            noSlip;
    }
    Table_slave
    {
        type            noSlip;
    }
    inlet
    {
        type            fixedValue;
        value           uniform (0.46194 -0.191342 0);
    }
    outlet
    {
        type            zeroGradient;
    }
}


// ************************************************************************* //
