/*--------------------------------*- C++ -*----------------------------------*\
  =========                 |
  \\      /  F ield         | OpenFOAM: The Open Source CFD Toolbox
   \\    /   O peration     | Website:  https://openfoam.org
    \\  /    A nd           | Version:  6
     \\/     M anipulation  |
\*---------------------------------------------------------------------------*/
FoamFile
{
    version     2.0;
    format      ascii;
    class       surfaceScalarField;
    location    "6000";
    object      phi;
}
// * * * * * * * * * * * * * * * * * * * * * * * * * * * * * * * * * * * * * //

dimensions      [1 0 -1 0 0 0 0];

internalField   nonuniform List<scalar> 
1482
(
-0.00279974
0.00286378
-0.00348389
0.000684142
-0.00414444
0.000660556
-0.00475835
0.000613908
-0.00527952
0.000521172
-0.00569123
0.000411709
-0.00598228
0.000291044
-0.00613962
0.000157345
-0.00614595
6.32885e-06
-0.00597529
-0.000170663
-0.00559766
-0.000377623
-0.004982
-0.000615667
-0.00405804
-0.000923954
-0.00257955
-0.0014785
-0.00257662
-6.37902e-05
6.8645e-05
0.000781329
-0.000845119
0.00143514
-0.000653807
0.00183581
-0.000400674
0.00205849
-0.000222679
0.00216326
-0.000104774
0.00221055
-4.7287e-05
0.00223333
-2.27762e-05
0.00224314
-9.81123e-06
0.00224411
-9.78624e-07
0.00223709
7.0206e-06
0.00221805
1.90402e-05
0.00217367
4.43879e-05
0.00207068
0.000102983
0.00185359
0.000217095
0.00149527
0.000358315
0.00102243
0.00047284
0.00102887
-0.00204033
0.00507443
-0.00290837
0.00155218
-0.00369407
0.00144625
-0.00434491
0.00126475
-0.00488193
0.0010582
-0.00531045
0.000840228
-0.00562871
0.000609307
-0.00582995
0.000358587
-0.00590353
7.99016e-05
-0.00584159
-0.000232593
-0.00563832
-0.000580898
-0.00528233
-0.000971652
-0.00477242
-0.00143387
-0.00428659
-0.00196433
-0.00470249
-0.00216072
-0.00311675
-0.00158029
-0.00163421
-0.00147686
-0.00161936
0.00131812
-0.00123927
0.00166309
-0.00119009
0.00191588
-0.000906594
0.0021083
-0.0005931
0.00221679
-0.000331169
0.00222598
-0.000113958
0.00222792
-4.92286e-05
0.00222947
-2.43272e-05
0.00223038
-1.07169e-05
0.00223036
-9.62935e-07
0.002229
8.38017e-06
0.00222481
2.3235e-05
0.00221215
5.70406e-05
0.00215013
0.000165009
0.00190015
0.00046707
0.00146992
0.000788546
0.000904906
0.00103785
0.00195066
-0.00148821
0.00682056
-0.00235902
0.00242299
-0.00312885
0.00221608
-0.00371288
0.00184878
-0.00418332
0.00152863
-0.00455451
0.00121143
-0.00482831
0.000883102
-0.0050015
0.000531778
-0.00506771
0.00014611
-0.00501786
-0.000282439
-0.00484118
-0.000757578
-0.00453017
-0.00128266
-0.00411556
-0.00184847
-0.00371801
-0.00236188
-0.00329752
-0.00258121
-0.00236625
-0.00251157
-0.0012727
-0.00257041
-0.00287923
0.00115132
-0.00237613
0.0016551
-0.00169387
0.00195395
-0.00120544
0.00214763
-0.000786774
0.00217957
-0.000363112
0.00206577
0.00201669
0.00199252
0.00198196
0.00198115
0.00198968
0.00201307
0.00207026
0.00223543
0.00187706
0.000825443
0.00142874
0.00123686
0.000807758
0.00165884
0.00278444
-0.00110602
0.00825778
-0.00192785
0.00324483
-0.00256974
0.00285797
-0.0030299
0.00230894
-0.00339722
0.00189595
-0.00368576
0.00149997
-0.00389855
0.00109589
-0.00403377
0.000667
-0.00408394
0.000196278
-0.00403587
-0.000330507
-0.00387725
-0.0009162
-0.00360387
-0.00155604
-0.00323824
-0.00221411
-0.00281614
-0.00278398
-0.00227656
-0.0031208
-0.00155679
-0.00323134
-0.00086851
-0.00325869
-0.000688267
-0.00305947
0.00144818
-0.00212101
0.001379
-0.00230694
0.00169408
-0.00200896
0.00200639
-0.00151775
0.00227245
-0.00105283
0.00254763
-0.000638298
0.00286372
-0.000316237
0.00303249
-0.000168923
0.00309867
-6.63391e-05
0.00308284
1.56799e-05
0.00299379
8.88992e-05
0.0028325
0.000161129
0.00259116
0.000241188
0.0022468
0.000344205
0.00174207
0.000504581
0.00160574
0.000961775
0.0012785
0.00156409
0.000751526
0.00218582
0.00357025
-0.00080373
0.00945469
-0.00157981
0.00402091
-0.0020483
0.00332646
-0.00236385
0.00262449
-0.00260801
0.00214012
-0.00279331
0.00168527
-0.00292478
0.00122736
-0.00300314
0.000745368
-0.00302189
0.000215022
-0.00296442
-0.000387977
-0.00281745
-0.00106317
-0.00257394
-0.00179956
-0.00224035
-0.0025477
-0.00182378
-0.00320055
-0.00131835
-0.00362623
-0.000741698
-0.00380799
-0.000210297
-0.00379009
0.000266951
-0.00353672
0.00112778
-0.00298184
0.00149319
-0.00267235
0.00175145
-0.00226721
0.00200346
-0.00176977
0.00223313
-0.0012825
0.00244755
-0.000852721
0.0026499
-0.000518579
0.00276164
-0.000280669
0.00279958
-0.000104271
0.00277531
3.9947e-05
0.00269514
0.000169066
0.00256151
0.000294762
0.00237324
0.000429454
0.00212812
0.000589327
0.00183453
0.00079817
0.00163008
0.00116622
0.00149133
0.00170284
0.00131715
0.00235999
0.00231353
0.00257388
0.00134494
0.00100349
0.00188511
-0.000511476
0.00200368
-0.000575832
0.0104769
-0.00132469
0.00476976
-0.00158412
0.0035859
-0.00174987
0.00279023
-0.00186366
0.00225391
-0.00193495
0.00175656
-0.0019702
0.00126261
-0.00197373
0.0007489
-0.00194233
0.000183617
-0.00185433
-0.000475971
-0.00169991
-0.00121759
-0.00146899
-0.00203048
-0.00116445
-0.00285224
-0.000792104
-0.0035729
-0.000372292
-0.00404604
6.80708e-05
-0.00424835
0.000473349
-0.00419538
0.000847736
-0.00391111
0.00129842
-0.00343252
0.00159675
-0.00297068
0.00179945
-0.00246992
0.00197053
-0.00194085
0.00212223
-0.00143419
0.00225728
-0.000987774
0.00236339
-0.000624683
0.0024233
-0.000340586
0.0024363
-0.000117269
0.00240735
6.89e-05
0.00234107
0.000235348
0.00224115
0.000394681
0.00211164
0.00055896
0.00195979
0.000741177
0.00180058
0.00095738
0.00171114
0.00125567
0.00177211
0.00164187
0.00199105
0.00214105
0.00224512
0.0023198
0.00176323
0.00148538
0.000836123
0.00041563
0.00293703
-0.000543524
0.0115126
-0.00124369
0.00546992
-0.00119179
0.00353399
-0.00119991
0.00279836
-0.00119204
0.00224604
-0.00115836
0.00172287
-0.00110103
0.00120529
-0.00102584
0.00067371
-0.000927137
8.49096e-05
-0.000778102
-0.000625006
-0.000588823
-0.00140687
-0.000348704
-0.0022706
-6.48852e-05
-0.00313606
0.000239859
-0.00387764
0.000549768
-0.00435595
0.000844903
-0.00454349
0.0011079
-0.00445837
0.00134117
-0.00414439
0.00157262
-0.00366397
0.00173179
-0.00312986
0.00183118
-0.00256931
0.00190094
-0.00201062
0.00195697
-0.00149022
0.00200452
-0.00103532
0.00203833
-0.0006585
0.00205249
-0.000354737
0.00204321
-0.000107989
0.00201091
0.000101196
0.00195838
0.000287882
0.00188913
0.000463924
0.00180824
0.000639851
0.00172432
0.000825099
0.00165295
0.00102875
0.00163872
0.00126989
0.00172911
0.00155148
0.00194955
0.00192061
0.00222131
0.00204804
0.00224693
0.00145975
0.00165574
0.00100682
0.0046954
-0.000483766
0.0125319
-0.00105163
0.00603779
-0.000697361
0.00317972
-0.000636256
0.00273725
-0.000567619
0.00217741
-0.000462636
0.00161789
-0.000333287
0.00107594
-0.000181706
0.000522129
7.84785e-06
-0.000104644
0.000226164
-0.000843323
0.000466048
-0.00164675
0.000723822
-0.00252837
0.000980694
-0.00339293
0.00120907
-0.00410601
0.00140831
-0.00455519
0.00156946
-0.00470464
0.00168725
-0.00457615
0.00176634
-0.00422348
0.00181911
-0.00371675
0.00182878
-0.00313953
0.0018037
-0.00254423
0.00176307
-0.00196999
0.00172198
-0.00144913
0.00168804
-0.00100138
0.0016612
-0.000631665
0.00163736
-0.000330891
0.00161132
-8.19571e-05
0.00158047
0.000132054
0.00154458
0.000323767
0.0015046
0.00050391
0.00146329
0.000681153
0.00142664
0.000861748
0.00140579
0.00104961
0.00142564
0.00125004
0.00151886
0.00145826
0.00174518
0.00169429
0.0020769
0.00171633
0.00223931
0.00129733
0.0017428
0.00150332
0.00680517
0.00297876
0.0101403
0.00202337
0.00699317
0.000869913
0.00433318
0.000371413
0.00323575
0.000214584
0.00233424
0.000271244
0.00156123
0.000425538
0.000921644
0.000639841
0.000307825
0.000899483
-0.000364286
0.0011648
-0.00110864
0.00144358
-0.00192553
0.00171066
-0.00279545
0.00193662
-0.00361888
0.00209722
-0.0042666
0.00218675
-0.00464471
0.00220793
-0.00472581
0.00216961
-0.00453783
0.00208541
-0.00413929
0.00197054
-0.00360188
0.00183065
-0.00299964
0.00167806
-0.00239163
0.00152986
-0.0018218
0.00140094
-0.00132021
0.00129973
-0.000900162
0.00122747
-0.000559407
0.00117915
-0.000282566
0.00114711
-4.9916e-05
0.00112553
0.000153633
0.00111034
0.000338955
0.00109872
0.000515531
0.00108993
0.000689948
0.00108564
0.000866031
0.00109066
0.00104459
0.00111696
0.00122374
0.00118629
0.00138894
0.00136566
0.00151492
0.00171928
0.00136271
0.00185023
0.00116638
0.000522842
0.00283066
0.00771196
0.00403327
0.00624724
0.00366988
0.00735657
0.00254412
0.00545894
0.00189058
0.00388929
0.00153397
0.00269085
0.00138923
0.00170596
0.00142332
0.000887561
0.00159819
0.000132956
0.00185075
-0.000616849
0.00212836
-0.00138624
0.00240834
-0.00220552
0.00265331
-0.00304042
0.00282157
-0.00378713
0.00288619
-0.00433121
0.00284408
-0.00460259
0.0027092
-0.00459092
0.00250389
-0.00433251
0.00225243
-0.00388783
0.00197756
-0.003327
0.00169643
-0.00271852
0.00142644
-0.00212165
0.00118581
-0.00158117
0.000989621
-0.00112402
0.000844659
-0.0007552
0.000749847
-0.000464595
0.000696014
-0.000228732
0.000671685
-2.55871e-05
0.000667329
0.000157989
0.000675306
0.000330978
0.000690052
0.000500785
0.000707978
0.000672022
0.000726015
0.000847993
0.000740163
0.00103045
0.000743126
0.00122078
0.000715459
0.0014166
0.000598053
0.00163233
-6.37781e-06
0.00196716
-0.00175104
0.00291101
-0.00306209
0.0041416
0.00475393
0.00241069
0.00400108
0.00330636
0.0064609
0.00325021
0.0055151
0.00303924
0.00410025
0.00284829
0.0028818
0.00272528
0.00182897
0.00271179
0.00090106
0.00280134
4.34071e-05
0.00296394
-0.000779446
0.00317508
-0.00159738
0.00339282
-0.00242326
0.00355704
-0.00320463
0.00361295
-0.00384304
0.003534
-0.00425225
0.0033258
-0.00439438
0.00301463
-0.00427975
0.0026349
-0.00395277
0.00221995
-0.00347287
0.00179933
-0.00290638
0.00139667
-0.00231586
0.00103383
-0.00175881
0.00073107
-0.00127841
0.000502886
-0.000895839
0.000348929
-0.000601242
0.000260376
-0.000376042
0.000220286
-0.000188642
0.000213632
-1.89323e-05
0.000228981
0.00014264
0.000258028
0.000301932
0.000295248
0.000463565
0.000336396
0.000630875
0.000375623
0.000808767
0.000403582
0.00100249
0.000400586
0.00122377
0.000322778
0.00149441
7.94262e-05
0.00187569
-0.000627849
0.0026747
-0.00189107
0.00417446
-0.00232865
0.00457922
0.00254187
0.00145712
0.00273823
0.00274852
0.0051695
0.00343248
0.00483113
0.00371866
0.00381408
0.00381747
0.002783
0.00384616
0.00180028
0.00388322
0.000864
0.0039534
-2.67717e-05
0.00406416
-0.000890202
0.00420474
-0.00173796
0.00432368
-0.00254221
0.00435027
-0.00323122
0.00423297
-0.00372572
0.00395971
-0.00397898
0.00355312
-0.00398777
0.00305304
-0.00377966
0.00250325
-0.00340297
0.00194229
-0.00291191
0.00140416
-0.00236825
0.000915594
-0.00182728
0.000504036
-0.00134725
0.000189456
-0.000963832
-2.10395e-05
-0.000685345
-0.000143034
-0.000479249
-0.000201634
-0.000317442
-0.00021894
-0.000171336
-0.000208388
-2.94844e-05
-0.000178615
0.000112868
-0.000135129
0.000258446
-8.13581e-05
0.000409794
-2.00651e-05
0.000569582
4.45411e-05
0.000744161
0.000104367
0.00094266
0.000142668
0.00118547
0.00012237
0.0015147
-2.07815e-05
0.00201884
-0.00026411
0.00291831
-0.000641476
0.0045523
-0.000867126
0.00480525
0.00180354
0.00217072
0.000793493
0.00294064
0.00439959
0.0035914
0.00418038
0.00416228
0.0032432
0.0044907
0.00245458
0.00466593
0.00162506
0.00478391
0.000746025
0.00488992
-0.000132778
0.00499727
-0.000997563
0.00507585
-0.00181655
0.00506018
-0.00252655
0.00489025
-0.00306129
0.00454373
-0.0033792
0.00403969
-0.00347493
0.00342308
-0.00337115
0.00274458
-0.00310116
0.00205235
-0.00271074
0.00138401
-0.00224357
0.000778096
-0.00176233
0.00026101
-0.0013102
-0.000127746
-0.000958493
-0.000381508
-0.000710073
-0.000526445
-0.00054041
-0.000599245
-0.00040645
-0.000628357
-0.000288329
-0.000627515
-0.000172177
-0.00060494
-5.20576e-05
-0.000566106
7.40351e-05
-0.000513945
0.000206286
-0.000449856
0.000345705
-0.000374716
0.000494443
-0.000288414
0.000657859
-0.000192233
0.000846479
-9.18956e-05
0.00108513
-8.66405e-06
0.00143145
3.3715e-05
0.00197638
0.000176364
0.00277565
0.000629997
0.00409899
0.000915114
0.00452046
0.00285331
-0.00158211
0.0026207
0.00111478
0.0017027
0.00334755
0.0019476
0.00435059
0.00224017
0.00485516
0.00195
0.00517091
0.00130931
0.00540045
0.000516482
0.00557952
-0.000311854
0.00567931
-0.00109738
0.005638
-0.00177527
0.00540501
-0.00229359
0.00496886
-0.00262515
0.00435768
-0.00276802
0.00362445
-0.0027417
0.00282904
-0.00257574
0.00202101
-0.00229312
0.00124767
-0.0019374
0.000539088
-0.00153498
-5.70388e-05
-0.0011662
-0.000495915
-0.000871324
-0.000771927
-0.000682487
-0.000930384
-0.000551622
-0.00101699
-0.000453805
-0.00105637
-0.000367074
-0.00106405
-0.000280643
-0.00104812
-0.000188112
-0.00101416
-8.6004e-05
-0.000967307
2.71799e-05
-0.000909958
0.000148939
-0.000842006
0.000277755
-0.000763263
0.0004157
-0.000671837
0.000566435
-0.000565581
0.000740224
-0.000447522
0.000967054
-0.000330444
0.00131428
-0.000185219
0.00183091
0.000166871
0.00242323
0.00102562
0.00324014
0.00156241
0.00398364
0.0045588
0.00288241
0.00456993
0.00486976
0.00164776
0.00535608
0.00175385
0.00559278
0.00171331
0.00582488
0.00107721
0.00601279
0.00032857
0.0060788
-0.000377903
0.00595212
-0.000970749
0.00559998
-0.00142318
0.00503546
-0.0017291
0.00430583
-0.00189553
0.00346963
-0.00193183
0.00258534
-0.00185742
0.00170708
-0.00169747
0.000866957
-0.001453
0.000105068
-0.00117551
-0.00051991
-0.000910005
-0.000964756
-0.000721366
-0.00124371
-0.000592379
-0.00141408
-0.00051214
-0.00151237
-0.000453343
-0.00156482
-0.000401365
-0.00158413
-0.000347768
-0.00157699
-0.000287772
-0.00154769
-0.000217398
-0.00150091
-0.000132771
-0.00144298
-3.07398e-05
-0.00137997
8.59339e-05
-0.00131452
0.000212309
-0.00124805
0.000349225
-0.00118302
0.000501413
-0.00112316
0.000680392
-0.00107074
0.000914651
-0.00101165
0.00125513
-0.000886745
0.00170571
-0.000533647
0.00206955
0.00047368
0.0022322
0.00103729
0.00341946
0.00575004
0.00793408
0.00536229
0.00581448
0.00387346
0.00556587
0.00196196
0.00563716
0.00100594
0.00560049
0.000365229
0.005355
-0.000132441
0.00489035
-0.000506142
0.00424795
-0.00078082
0.0034821
-0.00096327
0.00264591
-0.00105935
0.00178086
-0.00106679
0.000923447
-0.001
0.000106984
-0.000881008
-0.000612502
-0.000733511
-0.00117864
-0.000609374
-0.00157818
-0.000510475
-0.00184745
-0.000452129
-0.00202011
-0.000419752
-0.00213273
-0.000399551
-0.00220517
-0.000380932
-0.00224702
-0.00035953
-0.002262
-0.000332771
-0.00225165
-0.00029808
-0.00221711
-0.000251896
-0.00216051
-0.000189329
-0.0020869
-0.000104321
-0.00200928
8.31772e-06
-0.00193875
0.000141765
-0.00187895
0.000289408
-0.00183737
0.00045984
-0.0018231
0.000666192
-0.00184273
0.000934445
-0.00188414
0.00129673
-0.00193931
0.00176092
-0.00210424
0.00223424
-0.00245117
0.00257861
-0.00223899
0.00320662
0.00368033
0.00411434
0.0014945
0.00451511
0.00347271
0.00374184
0.00273526
0.00323598
0.0015118
0.00288754
0.000713635
0.00251851
0.00023655
0.00206984
-5.74913e-05
0.00153112
-0.000242097
0.000921719
-0.000353863
0.000259103
-0.000396719
-0.000419733
-0.000387944
-0.00105876
-0.000360967
-0.00160986
-0.000329902
-0.00204267
-0.0003007
-0.00236393
-0.000288136
-0.00258832
-0.000286127
-0.00274879
-0.00029172
-0.00286953
-0.000299079
-0.0029638
-0.000305341
-0.0030357
-0.00030906
-0.00308551
-0.000309711
-0.00311175
-0.000306471
-0.00311218
-0.00029756
-0.00308451
-0.000279466
-0.00302747
-0.000246264
-0.00294222
-0.00018951
-0.0028346
-9.93101e-05
-0.00272405
3.11501e-05
-0.00262822
0.000193483
-0.00254971
0.000381258
-0.00248487
0.000601355
-0.00242923
0.000878966
-0.00236965
0.00123749
-0.00230195
0.00169364
-0.00240825
0.00234093
-0.00314337
0.00331402
-0.00336442
0.00342786
0.000498602
-0.00259327
-0.00675476
-0.00741115
-0.0074589
-0.00374853
-0.00216819
-0.00166943
0.00139359
-0.000756536
0.00182235
-0.000559877
0.00131512
-0.000641704
0.000795447
-0.000827749
0.000422592
-0.00106591
0.000180673
-0.00134978
4.17922e-05
-0.00168175
-2.18637e-05
-0.00203887
-3.95588e-05
-0.00239205
-3.47322e-05
-0.00271976
-3.32385e-05
-0.00299655
-5.31146e-05
-0.00320741
-8.98754e-05
-0.00336682
-0.000128784
-0.00349563
-0.000157411
-0.00361081
-0.000176645
-0.00371838
-0.000191593
-0.00381766
-0.000206114
-0.00390496
-0.000221773
-0.00397558
-0.000239027
-0.00402419
-0.000257743
-0.00404502
-0.000276563
-0.00403295
-0.000291356
-0.00398509
-0.000293947
-0.00390193
-0.00027256
-0.0037868
-0.000214427
-0.00364645
-0.000109329
-0.00349966
4.64707e-05
-0.00335105
0.000232415
-0.00317753
0.000427649
-0.00295148
0.00065286
-0.00263674
0.000922894
-0.00217183
0.00122905
-0.00142607
0.00159557
-0.000260136
0.00214846
0.000638813
0.00252928
0.00131923
-0.00734245
0.00104123
-0.00811677
-0.00668463
-0.00717156
-0.00311347
-0.00565189
-0.000126125
-0.0045595
0.000729938
-0.00396868
0.000724302
-0.00371062
0.000537403
-0.00364476
0.000356767
-0.00368653
0.000222495
-0.00377907
0.000134397
-0.00388054
7.96603e-05
-0.00396646
4.6415e-05
-0.00402738
2.62222e-05
-0.00407044
9.83653e-06
-0.00411111
-1.24868e-05
-0.00416089
-4.01745e-05
-0.00422357
-6.62171e-05
-0.0042956
-8.55021e-05
-0.00437262
-9.97375e-05
-0.00445093
-0.00011336
-0.0045275
-0.000129568
-0.00459967
-0.000149551
-0.00466505
-0.000173527
-0.00472135
-0.000201255
-0.00476632
-0.000231346
-0.00479768
-0.000259734
-0.00481269
-0.000278687
-0.00480725
-0.000277841
-0.00477438
-0.000247264
-0.00470359
-0.000180262
-0.00458306
-7.43731e-05
-0.00440799
5.69197e-05
-0.00416699
0.00018625
-0.00382018
0.000305728
-0.00332154
0.000424078
-0.00260111
0.000508614
-0.00143726
0.000431843
0.000531263
0.00018012
0.00187545
0.00118534
0.00337787
0.00158298
-0.00503692
-0.00808705
-0.00815352
-0.00736896
-0.00659776
-0.0060201
-0.00562784
-0.00537294
-0.0052079
-0.00509832
-0.00502191
-0.00496512
-0.00492399
-0.00490467
-0.00491277
-0.00494675
-0.00499993
-0.00506729
-0.00514828
-0.0052456
-0.00536318
-0.00550523
-0.00567574
-0.00587734
-0.00610854
-0.00636004
-0.00661204
-0.00683466
-0.00699126
-0.00704268
-0.00696329
-0.00675492
-0.00642742
-0.00598206
-0.00545292
-0.00500152
-0.00480297
-0.00360033
)
;

boundaryField
{
    floor
    {
        type            calculated;
        value           nonuniform List<scalar> 
36
(
0
0
0
0
0
0
0
0
0
0
0
0
0
0
0
0
0
0
0
-6.43885e-06
-1.68818e-05
-2.60244e-05
-3.42882e-05
-3.49002e-05
-2.86964e-05
-2.85617e-05
-2.9204e-06
-5.44173e-06
-5.68805e-06
-5.90804e-06
-4.85471e-06
-8.93885e-06
-1.02089e-05
-1.28316e-05
-1.44564e-05
-1.54457e-05
)
;
    }
    ceiling
    {
        type            calculated;
        value           nonuniform List<scalar> 
43
(
-5.7844e-05
-6.47861e-05
-6.33967e-05
-5.96871e-05
-5.4641e-05
-4.6881e-05
-4.02083e-05
-3.54155e-05
-3.23104e-05
-3.05469e-05
-2.98306e-05
-2.99273e-05
-3.05492e-05
-3.13061e-05
-3.1862e-05
-3.21718e-05
-3.23346e-05
-3.24259e-05
-3.24592e-05
-3.24093e-05
-3.22342e-05
-3.18877e-05
-3.13286e-05
-3.05317e-05
-2.95022e-05
-2.82901e-05
-2.69956e-05
-2.57509e-05
-2.46776e-05
-2.38444e-05
-2.32521e-05
-2.28417e-05
-2.25019e-05
-2.20906e-05
-2.14934e-05
-2.06486e-05
-1.95725e-05
-1.8367e-05
-1.71657e-05
-1.64021e-05
1.93311e-05
1.51845e-05
-0.000246553
)
;
    }
    sWall
    {
        type            calculated;
        value           nonuniform List<scalar> 9(-0.000140237 -0.000164531 -0.000194273 -0.000225986 -0.000245103 -0.00028104 -0.000423501 -0.000453603 -0.00048393);
    }
    nWall
    {
        type            calculated;
        value           nonuniform List<scalar> 
14
(
-9.00027e-05
-9.72315e-05
-0.000102631
-0.000104094
-0.000116606
-0.000128668
-0.000134509
-0.000143251
-0.000154518
-0.000169829
-0.000182734
-0.000181393
-0.000183024
-0.0002059
)
;
    }
    sideWalls
    {
        type            empty;
        value           nonuniform 0();
    }
    glass1
    {
        type            calculated;
        value           nonuniform List<scalar> 9(-6.40339e-05 -0.00017032 -0.00025792 -0.000331202 -0.000393183 -0.000446386 -0.000492195 -0.000535476 -0.000587162);
    }
    glass2
    {
        type            calculated;
        value           nonuniform List<scalar> 2(-0.000366963 -0.000383963);
    }
    sun
    {
        type            calculated;
        value           uniform 0;
    }
    Table_master
    {
        type            calculated;
        value           nonuniform List<scalar> 9(-1.53991e-07 -1.54108e-07 -1.5414e-07 -1.5416e-07 -1.54173e-07 -1.54178e-07 -1.54176e-07 -1.54162e-07 -1.54109e-07);
    }
    Table_slave
    {
        type            calculated;
        value           nonuniform List<scalar> 9(1.53661e-07 1.53717e-07 1.53716e-07 1.53732e-07 1.53753e-07 1.53797e-07 1.53863e-07 1.53957e-07 1.54084e-07);
    }
    inlet
    {
        type            calculated;
        value           uniform -0.0116486;
    }
    outlet
    {
        type            calculated;
        value           nonuniform List<scalar> 2(0.00977147 0.0122767);
    }
}


// ************************************************************************* //
