/*--------------------------------*- C++ -*----------------------------------*\
  =========                 |
  \\      /  F ield         | OpenFOAM: The Open Source CFD Toolbox
   \\    /   O peration     | Website:  https://openfoam.org
    \\  /    A nd           | Version:  6
     \\/     M anipulation  |
\*---------------------------------------------------------------------------*/
FoamFile
{
    version     2.0;
    format      ascii;
    class       volScalarField;
    location    "6000";
    object      T;
}
// * * * * * * * * * * * * * * * * * * * * * * * * * * * * * * * * * * * * * //

dimensions      [0 0 0 1 0 0 0];

internalField   nonuniform List<scalar> 
662
(
302.57
302.28
302.265
302.26
302.255
302.249
302.243
302.237
302.228
302.213
302.194
302.175
302.164
302.17
302.205
302.376
302.351
302.342
302.349
302.356
302.363
302.369
302.376
302.382
302.388
302.394
302.4
302.406
302.412
302.418
302.425
302.434
302.459
302.784
302.334
302.313
302.319
302.325
302.328
302.328
302.323
302.31
302.279
302.231
302.179
302.149
302.149
302.166
302.179
302.192
302.218
302.383
302.327
302.322
302.33
302.341
302.345
302.349
302.351
302.354
302.357
302.359
302.362
302.365
302.369
302.375
302.383
302.397
302.441
303.008
302.4
302.365
302.386
302.411
302.433
302.449
302.455
302.442
302.391
302.296
302.193
302.138
302.138
302.159
302.175
302.186
302.209
302.332
302.311
302.313
302.33
302.349
302.35
302.352
302.353
302.354
302.356
302.357
302.358
302.36
302.362
302.368
302.375
302.387
302.435
303.227
302.482
302.413
302.443
302.488
302.537
302.583
302.613
302.61
302.537
302.376
302.205
302.124
302.128
302.158
302.182
302.193
302.205
302.217
302.239
302.271
302.309
302.347
302.379
302.405
302.423
302.438
302.451
302.461
302.469
302.475
302.48
302.483
302.453
302.423
302.407
302.438
303.428
302.595
302.474
302.485
302.535
302.598
302.67
302.738
302.762
302.672
302.438
302.204
302.107
302.119
302.164
302.202
302.221
302.231
302.249
302.28
302.318
302.361
302.402
302.438
302.469
302.492
302.51
302.524
302.533
302.538
302.538
302.533
302.524
302.5
302.465
302.433
302.439
302.538
302.618
302.619
303.588
302.81
302.637
302.585
302.595
302.636
302.702
302.796
302.845
302.727
302.446
302.182
302.077
302.11
302.182
302.242
302.275
302.293
302.319
302.354
302.395
302.437
302.477
302.511
302.538
302.559
302.575
302.586
302.592
302.593
302.586
302.576
302.56
302.536
302.502
302.465
302.452
302.496
302.526
302.57
304.842
303.541
303.142
302.927
302.812
302.769
302.788
302.86
302.916
302.793
302.463
302.132
302.015
302.112
302.226
302.31
302.359
302.386
302.415
302.448
302.485
302.522
302.556
302.584
302.606
302.621
302.632
302.638
302.64
302.637
302.627
302.611
302.591
302.566
302.536
302.502
302.482
302.491
302.506
302.538
307.142
305.009
304.267
303.838
303.512
303.287
303.164
303.101
302.95
302.596
302.159
301.908
301.995
302.168
302.319
302.415
302.463
302.49
302.515
302.544
302.574
302.603
302.628
302.647
302.661
302.67
302.675
302.676
302.674
302.668
302.659
302.645
302.624
302.602
302.579
302.555
302.542
302.549
302.572
302.739
293.641
299.468
301.58
302.343
302.562
302.526
302.24
301.841
301.632
301.722
302.102
302.321
302.469
302.531
302.562
302.584
302.605
302.627
302.649
302.669
302.685
302.696
302.702
302.705
302.706
302.704
302.701
302.697
302.693
302.692
302.693
302.699
302.713
302.738
302.775
302.814
302.847
302.925
295.446
295.254
297.592
299.385
300.322
300.655
300.798
301.053
301.458
301.901
302.385
302.523
302.591
302.625
302.645
302.661
302.677
302.693
302.706
302.717
302.725
302.729
302.732
302.733
302.733
302.733
302.733
302.733
302.734
302.736
302.74
302.748
302.762
302.782
302.808
302.834
302.86
302.91
299.857
297.788
295.638
295.642
297.293
298.813
299.743
300.37
300.942
301.503
302.025
302.374
302.601
302.651
302.68
302.697
302.709
302.72
302.729
302.738
302.744
302.748
302.751
302.753
302.754
302.755
302.755
302.756
302.756
302.757
302.758
302.76
302.764
302.769
302.779
302.792
302.809
302.83
302.857
302.885
300.121
298.984
298.475
298.518
299.278
300.089
300.783
301.404
301.933
302.313
302.552
302.677
302.735
302.748
302.758
302.765
302.771
302.776
302.78
302.783
302.784
302.785
302.785
302.785
302.784
302.783
302.782
302.782
302.781
302.78
302.779
302.78
302.78
302.783
302.786
302.794
302.806
302.815
302.876
302.983
303.795
303.334
303.017
302.857
302.777
302.767
302.815
302.9
302.883
302.644
302.279
302.045
305.818
304.556
304.037
303.663
303.386
303.214
303.133
303.047
302.797
302.37
301.998
301.895
297.508
300.775
302.063
302.495
302.568
302.415
302.035
301.699
301.644
301.843
294.377
296.413
298.603
299.947
300.545
300.722
300.905
301.241
301.684
302.088
299.149
296.527
295.119
296.432
298.108
299.335
300.076
300.655
301.223
301.775
302.224
302.482
299.324
298.687
298.384
298.861
299.697
300.448
301.101
301.684
302.142
302.449
302.627
302.709
304.007
304.015
303.633
303.351
303.138
303.006
302.958
302.977
302.959
302.739
302.346
302.03
307.225
305.052
304.473
303.947
303.588
303.349
303.193
303.062
302.765
302.305
301.906
301.791
295.311
296.398
299.156
300.735
301.413
301.556
301.449
301.334
301.443
301.751
293.963
295.138
297.07
298.738
299.733
300.242
300.642
301.145
301.684
302.138
299.881
298.201
296.952
296.93
298.151
299.313
300.147
300.825
301.444
301.943
302.323
302.542
299.92
299.925
300
300.152
300.591
301.115
301.622
302.068
302.396
302.594
302.697
302.732
304.303
303.807
303.482
303.235
303.06
302.97
302.962
302.985
302.879
302.551
302.161
301.969
305.846
304.824
304.184
303.75
303.456
303.262
303.132
302.94
302.546
302.079
301.809
301.84
294.853
297.907
300.087
301.159
301.537
301.525
301.372
301.356
301.582
301.925
294.459
296.07
297.984
299.314
300.027
300.431
300.884
301.417
301.928
302.3
298.964
297.495
296.653
297.505
298.769
299.761
300.495
301.144
301.71
302.15
302.453
302.594
299.906
299.957
300.056
300.347
300.853
301.373
301.857
302.249
302.509
302.655
302.721
302.735
)
;

boundaryField
{
    floor
    {
        type            wallHeatTransfer;
        Tinf            uniform 305.2;
        alphaWall       uniform 0.24;
        value           nonuniform List<scalar> 
36
(
302.515
302.895
302.82
302.774
302.768
302.78
302.806
302.837
302.868
302.898
302.926
302.953
302.98
303.005
303.029
303.054
303.081
303.1
303.153
303.153
303.031
302.965
302.92
302.917
302.972
302.953
302.515
302.449
302.504
302.579
302.895
302.579
302.902
302.525
302.718
302.498
)
;
    }
    ceiling
    {
        type            wallHeatTransfer;
        Tinf            uniform 303.2;
        alphaWall       uniform 0.24;
        value           nonuniform List<scalar> 
58
(
300.121
300.158
300.245
300.515
300.995
301.491
301.951
302.325
302.572
302.712
302.776
302.789
302.793
302.805
302.815
302.823
302.829
302.834
302.839
302.843
302.845
302.846
302.846
302.845
302.844
302.842
302.84
302.838
302.836
302.834
302.831
302.829
302.828
302.828
302.829
302.834
302.843
302.854
302.911
303.004
305.699
304.74
294.889
300.332
300.134
300.195
300.332
300.747
301.245
301.728
302.153
302.464
302.653
302.753
302.787
306.91
304.955
296.096
)
;
    }
    sWall
    {
        type            wallHeatTransfer;
        Tinf            uniform 315.2;
        alphaWall       uniform 0.36;
        value           nonuniform List<scalar> 4(301.119 301.245 301.106 301.624);
    }
    nWall
    {
        type            wallHeatTransfer;
        Tinf            uniform 307.2;
        alphaWall       uniform 0.36;
        value           nonuniform List<scalar> 6(303.455 303.394 303.278 303.515 303.478 303.575);
    }
    sideWalls
    {
        type            empty;
    }
    glass1
    {
        type            wallHeatTransfer;
        Tinf            uniform 315.2;
        alphaWall       uniform 4.3;
        value           nonuniform List<scalar> 10(311.381 310.718 310.263 309.892 309.59 309.288 309.281 311.375 309.821 311.429);
    }
    glass2
    {
        type            wallHeatTransfer;
        Tinf            uniform 307.2;
        alphaWall       uniform 4.3;
        value           nonuniform List<scalar> 2(305.475 305.603);
    }
    sun
    {
        type            wallHeatTransfer;
        Tinf            uniform 305.2;
        alphaWall       uniform 0.24;
        value           nonuniform List<scalar> 
14
(
302.864
302.587
302.57
302.555
302.541
302.528
302.515
302.502
302.486
302.467
302.444
302.424
302.418
302.437
)
;
    }
    Table_master
    {
        type            zeroGradient;
    }
    Table_slave
    {
        type            zeroGradient;
    }
    inlet
    {
        type            fixedValue;
        value           uniform 293.15;
    }
    outlet
    {
        type            zeroGradient;
    }
}


// ************************************************************************* //
