/*--------------------------------*- C++ -*----------------------------------*\
  =========                 |
  \\      /  F ield         | OpenFOAM: The Open Source CFD Toolbox
   \\    /   O peration     | Website:  https://openfoam.org
    \\  /    A nd           | Version:  6
     \\/     M anipulation  |
\*---------------------------------------------------------------------------*/
FoamFile
{
    version     2.0;
    format      ascii;
    class       volScalarField;
    location    "630";
    object      alphat;
}
// * * * * * * * * * * * * * * * * * * * * * * * * * * * * * * * * * * * * * //

dimensions      [1 -1 -1 0 0 0 0];

internalField   nonuniform List<scalar> 
458
(
0.00124566
0.00135712
0.00138799
0.00145448
0.00151574
0.00157376
0.00163184
0.00169075
0.00173891
0.00176914
0.00177248
0.00174012
0.00166095
0.00149286
0.00113348
0.000559739
0.000656174
0.00074414
0.000776166
0.000764098
0.000714935
0.00066056
0.000611927
0.000569822
0.000533253
0.000501325
0.000473392
0.00044863
0.000426083
0.000404701
0.000383233
0.000370415
0.000340363
0.00167797
0.00378175
0.00348896
0.00399774
0.00450559
0.00502784
0.00549615
0.00585907
0.00623177
0.00658052
0.00686008
0.00702939
0.00704391
0.00679574
0.00551771
0.00149647
0.00124164
0.00101276
0.000555005
0.00131815
0.00192174
0.00238896
0.0025366
0.00184784
0.00155945
0.00136321
0.00121836
0.0011075
0.00101956
0.000943892
0.000872781
0.00080173
0.0007382
0.000685039
0.000837926
0.000447084
0.00203842
0.00508326
0.00419758
0.00511572
0.00550302
0.00577527
0.0059847
0.00617869
0.00644831
0.00677596
0.00713388
0.00748401
0.0077586
0.00785126
0.0073945
0.0060265
0.00456481
0.00119698
0.000853968
0.00147448
0.00214716
0.0028165
0.00300799
0.000961198
0.000841387
0.000741701
0.000660958
0.000595794
0.000542994
0.000500074
0.000465369
0.00043838
0.000485672
0.000562513
0.000983527
0.000528226
0.00238513
0.00649024
0.00408478
0.00529992
0.00551203
0.00549174
0.00547318
0.00556672
0.00578644
0.00611137
0.00652416
0.00698365
0.00738302
0.00763037
0.00757038
0.00717717
0.00615836
0.00338063
0.0013785
0.00175202
0.00240839
0.00321406
0.00391359
0.00394957
0.00108306
0.00099265
0.00093098
0.000885407
0.000846855
0.000808612
0.000772299
0.000733939
0.000689124
0.000648963
0.000639529
0.00117244
0.000608343
0.00273906
0.00838165
0.00428494
0.00503161
0.00533431
0.00515463
0.00500861
0.00509293
0.00532446
0.0056629
0.00610875
0.00661333
0.007004
0.00719608
0.00718822
0.00704902
0.00664102
0.00549077
0.004971
0.00500758
0.00530016
0.00564912
0.00586406
0.00576912
0.00492271
0.00448662
0.00424592
0.00407347
0.00389905
0.00367365
0.00329213
0.00280129
0.00224334
0.0017062
0.00127982
0.00119271
0.00103429
0.000813002
0.000860513
0.000935396
0.0031178
0.0105107
0.00586542
0.00466072
0.00507774
0.00506894
0.00488048
0.0049515
0.00518689
0.00552585
0.00597869
0.00646222
0.00682466
0.00693745
0.00682461
0.0066658
0.00659369
0.00649714
0.00668939
0.00702783
0.0072665
0.00731076
0.00715289
0.00681993
0.00635322
0.00597336
0.00567716
0.00541583
0.0051588
0.00488551
0.00453219
0.00404898
0.00343885
0.00274987
0.00211295
0.00153262
0.00125904
0.00109757
0.00138159
0.00097036
0.00349015
0.0121138
0.00874087
0.00572927
0.00498899
0.00506176
0.00512231
0.00515671
0.00529043
0.00559067
0.00603733
0.00651698
0.00684879
0.00688173
0.0066699
0.00651839
0.00676774
0.00731917
0.00788106
0.00820028
0.00820322
0.0079334
0.00747443
0.0069146
0.00635539
0.00590368
0.00556024
0.00528098
0.00503626
0.00481636
0.00461639
0.0043555
0.0039286
0.00335933
0.00276861
0.00220157
0.00183131
0.00167714
0.00159821
0.00115337
0.00357958
0.0112195
0.00953499
0.00801156
0.00684726
0.0063329
0.0058394
0.00550752
0.00550556
0.00579489
0.0062582
0.00673175
0.00700911
0.00693907
0.00668061
0.00674642
0.00745876
0.00804138
0.00834677
0.00833592
0.00800877
0.00744019
0.00673867
0.00602889
0.00543651
0.00501913
0.00473639
0.00453272
0.00438152
0.00427915
0.00423279
0.00423339
0.00411966
0.003782
0.00345289
0.00326929
0.00334854
0.00353385
0.00419553
0.00178503
0.00350525
0.00423046
0.0046752
0.00492466
0.00496265
0.0048899
0.00489629
0.00510959
0.00553688
0.00608015
0.00663269
0.00706197
0.00719252
0.00693713
0.0068715
0.00723242
0.00764894
0.00779223
0.00769059
0.00733123
0.00672572
0.00597521
0.00522289
0.00460264
0.00417155
0.00389604
0.00371098
0.00357043
0.00345078
0.00333874
0.00322422
0.00309886
0.00298546
0.00288741
0.00282219
0.00278504
0.00271494
0.00257155
0.0023977
0.00166652
0.00157695
0.00275661
0.00377517
0.00457714
0.00531411
0.00603283
0.00660435
0.00699037
0.00723493
0.00725763
0.00700769
0.00670885
0.00671239
0.0068357
0.00674672
0.00647782
0.00605164
0.0054762
0.00481373
0.00416354
0.00364378
0.00329288
0.00307752
0.00294549
0.00285809
0.0027946
0.00274604
0.00271028
0.00269019
0.00269647
0.00271216
0.00272613
0.0027267
0.00268331
0.00255005
0.00231562
0.0020253
0.00134103
0.00238086
0.0046615
0.00597071
0.00682164
0.00748322
0.00753576
0.00715023
0.00676377
0.006405
0.00574645
0.00528689
0.00518024
0.00511173
0.00491449
0.00461399
0.00423932
0.00379893
0.00333494
0.00291669
0.00259308
0.00236924
0.00224045
0.00218044
0.00216786
0.00218957
0.00223725
0.00230377
0.00238063
0.00247058
0.00257356
0.00268363
0.00279164
0.00287945
0.00292323
0.00288204
0.00284608
0.00262169
0.00135857
0.00249207
0.00255412
0.00261014
0.00289412
0.00272949
0.00241435
0.00203543
0.00173282
0.00154629
0.00136852
0.0012114
0.00108851
0.000984061
0.000905426
0.000851016
0.0008113
0.000779345
0.000751859
0.000729191
0.000713931
0.000708279
0.000712577
0.000725411
0.000744198
0.000767888
0.000795927
0.000828157
0.00086477
0.00090638
0.000954272
0.00100874
0.00106939
0.00113654
0.00121049
0.0012913
0.00138812
0.00143033
0.00140092
0.00130304
0.00120498
)
;

boundaryField
{
    floor
    {
        type            compressible::alphatWallFunction;
        Prt             0.85;
        value           nonuniform List<scalar> 
36
(
0.000160919
7.82968e-05
9.27106e-05
0.000105634
0.000110293
0.000108541
0.000101366
9.33606e-05
8.61326e-05
7.98177e-05
7.42863e-05
6.94183e-05
6.51275e-05
6.1297e-05
5.77858e-05
5.44341e-05
5.10458e-05
4.90113e-05
4.42052e-05
4.42046e-05
6.10576e-05
7.35235e-05
8.55989e-05
0.000115632
0.000122469
0.000133149
0.000160917
0.000210477
0.000175852
0.000144057
7.82959e-05
0.000144055
7.75811e-05
0.000169703
0.000121515
0.000194539
)
;
    }
    ceiling
    {
        type            compressible::alphatWallFunction;
        Prt             0.85;
        value           nonuniform List<scalar> 
43
(
0.000340333
0.000348216
0.000355317
0.000391146
0.000370505
0.000330568
0.000281789
0.000242122
0.000217296
0.000193318
0.000171832
0.000154802
0.000140153
0.000129005
0.000121225
0.000115508
0.000110884
0.000106889
0.000103581
0.000101347
0.000100518
0.000101149
0.000103028
0.000105773
0.000109222
0.000113287
0.000117939
0.000123198
0.000129143
0.000135946
0.000143634
0.000152138
0.000161489
0.000171714
0.000182806
0.000195994
0.00020171
0.000197731
0.000184413
0.000170959
0.000467177
0.000555343
0.000326055
)
;
    }
    sWall
    {
        type            compressible::alphatWallFunction;
        Prt             0.85;
        value           uniform 0.000339091;
    }
    nWall
    {
        type            compressible::alphatWallFunction;
        Prt             0.85;
        value           nonuniform List<scalar> 6(0.000132931 0.000137876 0.000163463 0.000189253 0.000191637 0.000170618);
    }
    sideWalls
    {
        type            empty;
    }
    glass1
    {
        type            compressible::alphatWallFunction;
        Prt             0.85;
        value           nonuniform List<scalar> 9(0.000171868 0.000229366 0.000276181 0.000320459 0.000365025 0.000412096 0.000457837 0.000468884 0.000460054);
    }
    glass2
    {
        type            compressible::alphatWallFunction;
        Prt             0.85;
        value           nonuniform List<scalar> 2(0.000247059 0.00023152);
    }
    sun
    {
        type            compressible::alphatWallFunction;
        Prt             0.85;
        value           nonuniform List<scalar> 
14
(
0.000176422
0.000191633
0.000195826
0.000204821
0.000213067
0.000220843
0.000228595
0.000236428
0.000242807
0.000246802
0.000247243
0.000242967
0.000232467
0.00020999
)
;
    }
    Table_master
    {
        type            compressible::alphatWallFunction;
        Prt             0.85;
        value           nonuniform List<scalar> 9(0.000136939 0.000119856 0.000105421 9.35581e-05 8.3855e-05 7.58967e-05 6.93566e-05 6.40165e-05 5.98289e-05);
    }
    Table_slave
    {
        type            compressible::alphatWallFunction;
        Prt             0.85;
        value           nonuniform List<scalar> 9(0.000154064 0.000141384 0.000132658 0.000126167 0.000120644 0.000115136 0.000109878 0.00010429 9.77176e-05);
    }
    inlet
    {
        type            fixedValue;
        value           uniform 1.94e-05;
    }
    outlet
    {
        type            zeroGradient;
    }
}


// ************************************************************************* //
