/*--------------------------------*- C++ -*----------------------------------*\
  =========                 |
  \\      /  F ield         | OpenFOAM: The Open Source CFD Toolbox
   \\    /   O peration     | Website:  https://openfoam.org
    \\  /    A nd           | Version:  6
     \\/     M anipulation  |
\*---------------------------------------------------------------------------*/
FoamFile
{
    version     2.0;
    format      ascii;
    class       volScalarField;
    location    "630";
    object      T;
}
// * * * * * * * * * * * * * * * * * * * * * * * * * * * * * * * * * * * * * //

dimensions      [0 0 0 1 0 0 0];

internalField   nonuniform List<scalar> 
458
(
302.741
302.462
302.449
302.446
302.442
302.439
302.435
302.431
302.424
302.415
302.407
302.403
302.406
302.421
302.463
302.605
302.583
302.575
302.581
302.588
302.593
302.599
302.604
302.61
302.615
302.62
302.625
302.631
302.636
302.641
302.647
302.654
302.678
302.927
302.495
302.47
302.471
302.473
302.473
302.471
302.465
302.451
302.429
302.405
302.39
302.391
302.405
302.426
302.436
302.446
302.468
302.611
302.561
302.558
302.565
302.575
302.579
302.581
302.583
302.585
302.587
302.588
302.59
302.593
302.596
302.601
302.609
302.62
302.661
303.123
302.54
302.5
302.51
302.522
302.532
302.537
302.533
302.508
302.463
302.415
302.383
302.381
302.4
302.421
302.433
302.441
302.461
302.569
302.549
302.551
302.566
302.584
302.585
302.585
302.585
302.586
302.587
302.587
302.588
302.589
302.59
302.595
302.601
302.612
302.655
303.324
302.598
302.532
302.551
302.58
302.608
302.627
302.627
302.587
302.51
302.428
302.376
302.37
302.397
302.425
302.442
302.449
302.458
302.467
302.485
302.514
302.547
302.582
302.612
302.636
302.653
302.667
302.678
302.688
302.694
302.7
302.704
302.706
302.678
302.649
302.631
302.657
303.521
302.673
302.566
302.583
302.626
302.676
302.72
302.731
302.67
302.554
302.438
302.367
302.361
302.395
302.436
302.464
302.474
302.48
302.494
302.52
302.554
302.594
302.633
302.667
302.696
302.717
302.733
302.746
302.754
302.759
302.758
302.754
302.745
302.722
302.689
302.657
302.659
302.749
302.828
302.83
303.699
302.772
302.621
302.612
302.652
302.711
302.786
302.812
302.722
302.573
302.434
302.355
302.351
302.397
302.457
302.501
302.523
302.534
302.554
302.585
302.623
302.663
302.701
302.734
302.76
302.779
302.793
302.803
302.808
302.808
302.802
302.792
302.777
302.755
302.723
302.688
302.673
302.712
302.741
302.783
303.855
302.935
302.764
302.713
302.721
302.766
302.847
302.848
302.728
302.551
302.399
302.325
302.338
302.409
302.494
302.558
302.593
302.614
302.639
302.671
302.706
302.742
302.775
302.802
302.822
302.836
302.845
302.849
302.85
302.846
302.838
302.823
302.805
302.782
302.754
302.722
302.701
302.709
302.722
302.753
304.086
303.399
303.2
303.058
302.983
302.972
302.982
302.873
302.665
302.449
302.306
302.269
302.33
302.444
302.561
302.64
302.683
302.707
302.731
302.759
302.789
302.818
302.841
302.859
302.871
302.878
302.882
302.881
302.878
302.873
302.864
302.85
302.832
302.812
302.79
302.768
302.756
302.762
302.783
302.934
304.416
304.098
303.85
303.609
303.418
303.283
303.074
302.73
302.401
302.195
302.14
302.208
302.362
302.531
302.677
302.741
302.773
302.793
302.814
302.837
302.858
302.877
302.891
302.9
302.905
302.907
302.906
302.904
302.9
302.896
302.892
302.89
302.89
302.896
302.909
302.933
302.968
303.006
303.034
303.101
297.637
299.348
300.401
300.843
301.007
301.191
301.418
301.693
301.983
302.257
302.536
302.711
302.793
302.829
302.849
302.865
302.881
302.896
302.909
302.918
302.925
302.928
302.93
302.93
302.93
302.929
302.929
302.929
302.93
302.931
302.935
302.943
302.957
302.978
303.005
303.034
303.058
303.081
297.994
299.415
300.263
300.707
301.029
301.376
301.744
302.128
302.457
302.658
302.782
302.847
302.877
302.895
302.908
302.919
302.928
302.936
302.941
302.945
302.947
302.949
302.949
302.95
302.95
302.95
302.951
302.952
302.953
302.954
302.958
302.964
302.973
302.988
303.006
303.028
303.028
303.062
299.473
299.433
299.431
300.463
301.102
301.629
302.106
302.439
302.631
302.762
302.843
302.888
302.917
302.935
302.947
302.955
302.961
302.965
302.969
302.971
302.972
302.973
302.973
302.972
302.972
302.971
302.971
302.97
302.97
302.97
302.97
302.97
302.971
302.974
302.978
302.988
302.999
303.007
303.011
303.052
)
;

boundaryField
{
    floor
    {
        type            wallHeatTransfer;
        Tinf            uniform 305.2;
        alphaWall       uniform 0.24;
        value           nonuniform List<scalar> 
36
(
302.775
303.092
303.024
302.981
302.974
302.984
303.008
303.035
303.063
303.09
303.115
303.14
303.163
303.186
303.208
303.231
303.255
303.273
303.323
303.323
303.211
303.151
303.108
303.105
303.158
303.141
302.775
302.691
302.739
302.806
303.092
302.806
303.099
302.76
302.938
302.736
)
;
    }
    ceiling
    {
        type            wallHeatTransfer;
        Tinf            uniform 303.2;
        alphaWall       uniform 0.24;
        value           nonuniform List<scalar> 
43
(
299.703
299.66
299.654
300.612
301.221
301.728
302.185
302.502
302.682
302.805
302.881
302.925
302.953
302.971
302.982
302.99
302.996
303.001
303.005
303.007
303.009
303.009
303.008
303.007
303.006
303.005
303.004
303.002
303.001
302.999
302.998
302.997
302.997
302.998
303.001
303.009
303.018
303.026
303.03
303.068
304.359
304.063
298.327
)
;
    }
    sWall
    {
        type            wallHeatTransfer;
        Tinf            uniform 315.2;
        alphaWall       uniform 0.36;
        value           uniform 300.886;
    }
    nWall
    {
        type            wallHeatTransfer;
        Tinf            uniform 307.2;
        alphaWall       uniform 0.36;
        value           nonuniform List<scalar> 6(303.638 303.579 303.464 303.672 303.65 303.695);
    }
    sideWalls
    {
        type            empty;
    }
    glass1
    {
        type            wallHeatTransfer;
        Tinf            uniform 315.2;
        alphaWall       uniform 4.3;
        value           nonuniform List<scalar> 9(311.277 310.63 310.219 309.903 309.64 309.398 309.195 309.255 309.48);
    }
    glass2
    {
        type            wallHeatTransfer;
        Tinf            uniform 307.2;
        alphaWall       uniform 4.3;
        value           nonuniform List<scalar> 2(305.544 305.666);
    }
    sun
    {
        type            wallHeatTransfer;
        Tinf            uniform 305.2;
        alphaWall       uniform 0.24;
        value           nonuniform List<scalar> 
14
(
303.002
302.734
302.718
302.705
302.694
302.684
302.674
302.663
302.652
302.641
302.633
302.632
302.644
302.678
)
;
    }
    Table_master
    {
        type            zeroGradient;
    }
    Table_slave
    {
        type            zeroGradient;
    }
    inlet
    {
        type            fixedValue;
        value           uniform 295.15;
    }
    outlet
    {
        type            zeroGradient;
    }
}


// ************************************************************************* //
