/*--------------------------------*- C++ -*----------------------------------*\
  =========                 |
  \\      /  F ield         | OpenFOAM: The Open Source CFD Toolbox
   \\    /   O peration     | Website:  https://openfoam.org
    \\  /    A nd           | Version:  6
     \\/     M anipulation  |
\*---------------------------------------------------------------------------*/
FoamFile
{
    version     2.0;
    format      ascii;
    class       surfaceScalarField;
    location    "42299.9999996305196";
    object      phi;
}
// * * * * * * * * * * * * * * * * * * * * * * * * * * * * * * * * * * * * * //

dimensions      [1 0 -1 0 0 0 0];

internalField   nonuniform List<scalar> 
1482
(
-0.00279973
0.00286377
-0.00348396
0.000684226
-0.00414474
0.00066078
-0.00475893
0.000614187
-0.00528038
0.000521447
-0.0056923
0.000411923
-0.00598344
0.000291144
-0.00614074
0.000157297
-0.00614687
6.12601e-06
-0.00597587
-0.000171
-0.00559785
-0.000378022
-0.00498184
-0.000616007
-0.00405773
-0.000924107
-0.00257931
-0.00147842
-0.00257639
-6.39064e-05
6.87605e-05
0.000779511
-0.000843418
0.00143163
-0.000652121
0.00183052
-0.00039889
0.00205167
-0.000221144
0.00215589
-0.000104219
0.00220336
-4.74751e-05
0.00222634
-2.29739e-05
0.00223615
-9.81201e-06
0.00223701
-8.65435e-07
0.00222988
7.12937e-06
0.00221082
1.90615e-05
0.00216656
4.42668e-05
0.0020639
0.000102653
0.0018475
0.000216406
0.00149064
0.000356857
0.00102031
0.000470325
0.00102675
-0.00204034
0.00507443
-0.00290845
0.00155234
-0.00369437
0.0014467
-0.00434552
0.00126533
-0.00488287
0.0010588
-0.00531168
0.000840733
-0.00563013
0.000609594
-0.0058314
0.000358567
-0.00590482
7.95425e-05
-0.00584258
-0.000233237
-0.00563892
-0.000581682
-0.00528256
-0.000972366
-0.00477235
-0.00143432
-0.00428627
-0.00196449
-0.00470178
-0.00216088
-0.00311568
-0.00158066
-0.00163278
-0.00147721
-0.00161793
0.00131816
-0.00123919
0.00166215
-0.00118741
0.00191303
-0.000903004
0.00210324
-0.0005891
0.00220969
-0.000327591
0.00221832
-0.000112852
0.00222033
-4.94773e-05
0.00222201
-2.46571e-05
0.00222304
-1.08425e-05
0.00222309
-9.1233e-07
0.00222172
8.4918e-06
0.00221751
2.32806e-05
0.00220485
5.6921e-05
0.00214291
0.00016459
0.00189323
0.000466085
0.00146412
0.00078597
0.000901796
0.00103265
0.00194544
-0.00148821
0.00682057
-0.00235906
0.00242319
-0.00312909
0.00221672
-0.00371339
0.00184963
-0.00418413
0.00152954
-0.00455561
0.00121222
-0.00482961
0.000883597
-0.00500288
0.000531835
-0.00506901
0.000145672
-0.00501895
-0.000283297
-0.004842
-0.000758634
-0.00453077
-0.00128359
-0.00411614
-0.00184895
-0.00371876
-0.00236187
-0.00329856
-0.00258108
-0.00236761
-0.00251162
-0.00127413
-0.00257069
-0.00287922
0.00114981
-0.00237455
0.00165312
-0.00169072
0.00195104
-0.00120093
0.00214304
-0.000781096
0.00217155
-0.000356101
0.00205885
0.00200953
0.00198503
0.00197434
0.00197358
0.00198223
0.00200566
0.00206274
0.00222748
0.00186834
0.00082522
0.0014202
0.00123412
0.000801968
0.00165088
0.00277344
-0.001106
0.00825778
-0.00192784
0.00324504
-0.00256988
0.00285876
-0.00303025
0.00231
-0.00339783
0.00189712
-0.00368665
0.00150104
-0.00389969
0.00109663
-0.00403506
0.000667211
-0.00408525
0.000195858
-0.00403706
-0.000331483
-0.00387826
-0.000917437
-0.00360478
-0.00155706
-0.00323928
-0.00221445
-0.00281762
-0.00278353
-0.00227857
-0.00312013
-0.0015593
-0.00323088
-0.000871345
-0.00325864
-0.000691424
-0.00305914
0.00144451
-0.00212049
0.0013758
-0.00230584
0.00169106
-0.00200598
0.00200344
-0.0015133
0.00226966
-0.00104732
0.00254631
-0.000632747
0.00285893
-0.000312778
0.0030255
-0.000166716
0.00309008
-6.47404e-05
0.00307313
1.68007e-05
0.00298332
8.96572e-05
0.00282151
0.000161658
0.00257972
0.000241637
0.00223489
0.000344672
0.00172973
0.000505005
0.00159286
0.000962086
0.00126466
0.00156232
0.000738245
0.0021773
0.003546
-0.000803689
0.00945466
-0.00157975
0.00402109
-0.00204835
0.00332737
-0.00236405
0.0026257
-0.00260845
0.00214152
-0.00279403
0.00168662
-0.00292578
0.00122838
-0.0030044
0.000745825
-0.00302329
0.000214754
-0.00296583
-0.000388948
-0.00281877
-0.0010645
-0.00257522
-0.00180061
-0.00224181
-0.00254786
-0.00182572
-0.00319962
-0.00132074
-0.00362511
-0.000744556
-0.00380706
-0.000213556
-0.00378964
0.00026376
-0.00353646
0.00112449
-0.00298122
0.00148971
-0.00267106
0.00174813
-0.00226439
0.00200027
-0.00176545
0.00222999
-0.00127704
0.00244413
-0.00084689
0.00264483
-0.00051347
0.00275469
-0.000276582
0.00279102
-0.000101073
0.00276549
4.23355e-05
0.00268442
0.000170723
0.00255021
0.000295867
0.00236152
0.00043033
0.00211579
0.000590406
0.00182092
0.000799867
0.00161409
0.00116891
0.00147103
0.00170538
0.00128928
0.00235904
0.00227358
0.00256171
0.00132304
0.000985457
0.00191228
-0.000560727
0.00203089
-0.000575747
0.0104768
-0.00132455
0.0047699
-0.00158406
0.00358688
-0.00174994
0.00279159
-0.00186398
0.00225555
-0.00193558
0.00175822
-0.00197118
0.00126399
-0.00197506
0.000749702
-0.00194401
0.00018371
-0.00185622
-0.000476746
-0.00170184
-0.00121887
-0.00147096
-0.00203149
-0.00116651
-0.00285231
-0.000794407
-0.00357172
-0.000374755
-0.00404476
6.54346e-05
-0.00424725
0.000470528
-0.00419473
0.000844737
-0.00391067
0.00129533
-0.00343181
0.00159353
-0.00296926
0.00179627
-0.00246713
0.00196729
-0.00193647
0.00211866
-0.00142841
0.00225295
-0.000981181
0.00235763
-0.00061815
0.00241579
-0.000334743
0.00242718
-0.000112459
0.00239699
7.25224e-05
0.00232996
0.000237756
0.00222975
0.00039607
0.00210022
0.00055986
0.00194811
0.000742519
0.00178749
0.000960487
0.00169427
0.00126213
0.00174731
0.00165235
0.00195289
0.00215347
0.00219077
0.00232382
0.00170868
0.00146755
0.000788059
0.000359891
0.00291639
-0.000543292
0.0115123
-0.00124336
0.00546996
-0.00119151
0.00353503
-0.00119985
0.00279992
-0.00119229
0.002248
-0.00115901
0.00172494
-0.00110215
0.00120713
-0.0010274
0.000674944
-0.000929412
8.57257e-05
-0.000780804
-0.000625354
-0.000591792
-0.00140788
-0.000351774
-0.00227151
-6.78592e-05
-0.00313623
0.000237267
-0.00387685
0.000547544
-0.00435504
0.000842884
-0.0045426
0.00110584
-0.0044577
0.001339
-0.00414383
0.00157035
-0.00366315
0.00172939
-0.0031283
0.00182863
-0.00256636
0.00189805
-0.00200589
0.00195337
-0.00148373
0.00199973
-0.00102754
0.00203186
-0.000650277
0.00204409
-0.00034697
0.00203306
-0.00010143
0.00199951
0.000106069
0.00194645
0.000290818
0.00187748
0.000465034
0.00179753
0.000639813
0.00171466
0.000825392
0.0016432
0.00103194
0.00162552
0.00127982
0.00170547
0.0015724
0.00190469
0.00195425
0.00214752
0.002081
0.00216776
0.00144731
0.00162585
0.000901807
0.0046448
-0.00048346
0.0125313
-0.00105126
0.00603776
-0.000696952
0.00318072
-0.000636106
0.00273908
-0.00056784
0.00217973
-0.000463417
0.00162052
-0.000334799
0.00107851
-0.000184152
0.000524297
4.56774e-06
-0.000102994
0.000222286
-0.000843072
0.000461725
-0.00164732
0.000719479
-0.00252927
0.000976833
-0.00339359
0.00120617
-0.0041062
0.00140624
-0.00455512
0.00156805
-0.00470441
0.0016862
-0.00457585
0.00176543
-0.00422306
0.0018182
-0.00371593
0.00182775
-0.00313784
0.00180239
-0.002541
0.00176114
-0.00196464
0.00171893
-0.00144152
0.00168325
-0.000991862
0.00165417
-0.000621189
0.00162787
-0.000320678
0.00159965
-7.32071e-05
0.00156731
0.00013841
0.00153106
0.000327071
0.00149211
0.000503981
0.00145336
0.000678564
0.00142049
0.000858263
0.00140339
0.00104903
0.00142371
0.0012595
0.00150654
0.00148956
0.00169781
0.00176298
0.00195711
0.0018217
0.00209255
0.00131186
0.00170752
0.00128684
0.00671685
0.00297754
0.0101409
0.00202202
0.00699328
0.00086888
0.00433387
0.000370659
0.0032373
0.000213869
0.00233652
0.000270121
0.00156426
0.000423617
0.000925013
0.000636929
0.000310984
0.000895638
-0.000361702
0.00115984
-0.00110727
0.00143802
-0.0019255
0.00170518
-0.00279643
0.00193192
-0.00362033
0.00209381
-0.00426809
0.0021847
-0.00464602
0.00220705
-0.00472677
0.00216958
-0.00453839
0.00208593
-0.00413941
0.00197135
-0.00360136
0.00183154
-0.00299803
0.0016787
-0.00238816
0.00152972
-0.00181566
0.00139925
-0.00131105
0.00129557
-0.000888181
0.00122011
-0.000545726
0.00116832
-0.000268895
0.00113316
-3.80406e-05
0.00110944
0.000162128
0.00109375
0.000342762
0.00108385
0.000513874
0.00107966
0.000682754
0.0010835
0.000854423
0.00110012
0.00103242
0.00113896
0.00122067
0.00121042
0.0014181
0.00134203
0.00163137
0.00150642
0.00165731
0.00155106
0.00126724
0.000212767
0.00262519
0.00731336
0.00403122
0.00624995
0.00366719
0.00735731
0.00254163
0.00545943
0.00188842
0.00389051
0.00153192
0.00269302
0.00138705
0.00170913
0.00142061
0.000891449
0.0015945
0.0001371
0.00184587
-0.000613074
0.00212234
-0.00138375
0.00240173
-0.00220489
0.00264688
-0.00304158
0.00281611
-0.00378956
0.00288227
-0.00433425
0.00284188
-0.00460564
0.0027086
-0.0045935
0.00250463
-0.00433443
0.00225426
-0.00388904
0.00198025
-0.00332736
0.00169975
-0.00271754
0.00142995
-0.00211836
0.00118861
-0.00157432
0.0009905
-0.00111294
0.000841972
-0.000739653
0.000742353
-0.000446108
0.000683297
-0.000209839
0.000654203
-8.94668e-06
0.000646431
0.0001699
0.000653151
0.000336042
0.000669634
0.000497391
0.00069365
0.000658738
0.000724665
0.000823408
0.000762429
0.000994652
0.000805475
0.00117762
0.000840847
0.00138273
0.000815082
0.00165713
0.000407409
0.00206498
-0.00132779
0.0030027
-0.00280095
0.00409861
0.00461563
0.00240908
0.00400539
0.00330389
0.00646251
0.00324791
0.00551541
0.00303724
0.00410118
0.00284625
0.00288401
0.00272286
0.00183252
0.00270868
0.000905635
0.0027971
4.86703e-05
0.0029583
-0.000774276
0.00316828
-0.00159372
0.00338544
-0.00242205
0.00354988
-0.00320602
0.0036068
-0.00384649
0.00352943
-0.00425689
0.00332305
-0.00439926
0.0030137
-0.00428416
0.00263576
-0.00395649
0.00222263
-0.00347592
0.0018039
-0.00290863
0.00140309
-0.00231673
0.00104163
-0.0017569
0.000738632
-0.00127132
0.000508097
-0.000882404
0.000348727
-0.000580283
0.000252694
-0.000350076
0.000204325
-0.00016147
0.00019044
4.93823e-06
0.00020066
0.00015968
0.000226876
0.000309826
0.000264294
0.000459973
0.000310074
0.000612958
0.000362241
0.000771241
0.000418155
0.000938739
0.000473945
0.00112183
0.000514667
0.001342
0.000485108
0.00168667
0.000240816
0.00230917
-9.26565e-05
0.00333611
-0.000312148
0.00431822
0.004417
0.00145614
0.0027435
0.00274736
0.00517128
0.00343184
0.00483094
0.00371836
0.00381467
0.00381709
0.00278527
0.00384512
0.00180449
0.00388076
0.000869998
0.00394916
-1.97355e-05
0.00405835
-0.000883459
0.00419767
-0.00173304
0.00431595
-0.00254032
0.00434262
-0.00323269
0.00422607
-0.00372993
0.00395399
-0.00398481
0.00354884
-0.00399412
0.00305049
-0.00378581
0.00250294
-0.00340895
0.00194497
-0.00291795
0.00141067
-0.00237434
0.000926373
-0.00183244
0.000518614
-0.00134914
0.000204656
-0.000957359
-9.75875e-06
-0.000667989
-0.000140052
-0.00044999
-0.00020962
-0.000280509
-0.000238561
-0.000132529
-0.000238384
4.76096e-06
-0.000216536
0.000137831
-0.000178261
0.000271551
-0.000127296
0.000409008
-6.68033e-05
0.000552465
1.65684e-07
0.000704272
7.0204e-05
0.000868701
0.000140863
0.00105118
0.000201544
0.00128132
0.00017822
0.00170994
7.6438e-05
0.00241063
0.000396162
0.00301597
0.000607844
0.00410629
0.00514621
0.00216775
0.000801703
0.00294076
0.00439827
0.00359312
0.00417857
0.00416465
0.00324314
0.00449318
0.00245675
0.00466768
0.00162999
0.00478411
0.000753562
0.0048878
-0.000123423
0.00499276
-0.000988419
0.00506954
-0.00180981
0.00505279
-0.00252356
0.00488237
-0.00306225
0.00453567
-0.00338322
0.00403162
-0.00348075
0.00341539
-0.0033779
0.00273816
-0.00310858
0.00204887
-0.00271966
0.00138568
-0.00225476
0.000787424
-0.00177609
0.000279367
-0.00132438
-0.000103006
-0.000966771
-0.000356285
-0.000704079
-0.000507591
-0.000516682
-0.00059209
-0.000365492
-0.000636666
-0.000235935
-0.000652209
-0.000116988
-0.000644323
-3.12664e-06
-0.000616479
0.000109987
-0.000571365
0.000226435
-0.000512312
0.000349955
-0.000443724
0.000483876
-0.000371651
0.0006322
-0.000304309
0.00080136
-0.000256854
0.00100373
-0.000266829
0.0012913
-0.000397415
0.00184044
-0.000577806
0.00259063
-0.000545646
0.00298317
-0.000416948
0.00397697
0.00486558
-0.00157464
0.00262148
0.00111927
0.00170436
0.00335136
0.00194648
0.00435538
0.00223912
0.00486054
0.00195159
0.00517547
0.00131506
0.00540277
0.000526254
0.00557897
-0.000299613
0.00567637
-0.00108581
0.00563326
-0.00176668
0.00539871
-0.00228899
0.00496081
-0.00262434
0.00434738
-0.00276978
0.00361172
-0.00274509
0.00281474
-0.00258091
0.00200738
-0.00230122
0.00123878
-0.00195106
0.000540193
-0.00155617
-4.13218e-05
-0.00119457
-0.00046619
-0.000899505
-0.000734289
-0.000698666
-0.000892546
-0.000545818
-0.000987707
-0.000421522
-0.00104299
-0.000310213
-0.00107167
-0.00020726
-0.00107849
-0.000110178
-0.00106514
-1.64792e-05
-0.00103244
7.72922e-05
-0.000981685
0.000175676
-0.0009161
0.00028437
-0.00084158
0.000409356
-0.000767901
0.00055852
-0.000711908
0.000745371
-0.000706418
0.000998265
-0.000805509
0.0013905
-0.00104626
0.00208139
-0.00155564
0.00310009
-0.0025483
0.0039757
-0.00270519
0.0041336
0.00231251
0.00288321
0.00457239
0.00487319
0.00164568
0.00536155
0.00175075
0.00559941
0.00171373
0.00583057
0.00108389
0.00601615
0.000340666
0.00608043
-0.000363875
0.00595246
-0.000957817
0.00559864
-0.00141283
0.00503121
-0.00172152
0.00429701
-0.00189011
0.0034546
-0.00192735
0.00256393
-0.0018544
0.00168165
-0.00169862
0.000842711
-0.00146228
9.11193e-05
-0.00119947
-0.000514943
-0.000950103
-0.00093814
-0.000771361
-0.00119984
-0.000637793
-0.00136082
-0.000537674
-0.00145926
-0.000447369
-0.00152183
-0.000358964
-0.00156025
-0.000271808
-0.0015792
-0.00018833
-0.00157966
-0.000109724
-0.00156134
-3.48095e-05
-0.00152388
3.98269e-05
-0.00146758
0.000119379
-0.0013944
0.000211188
-0.00130914
0.000324095
-0.0012202
0.000469582
-0.00114072
0.00066588
-0.00109074
0.000948307
-0.00109125
0.00139116
-0.00112249
0.002113
-0.00120683
0.00318494
-0.00170494
0.00447425
-0.0018742
0.00430332
0.000604738
0.00793574
0.00535875
0.00581754
0.00386888
0.0055695
0.00196169
0.00563985
0.00101347
0.00560336
0.00037712
0.00535956
-0.000120074
0.00489553
-0.000493761
0.00425073
-0.000768004
0.00347858
-0.000949343
0.00263275
-0.00104426
0.00175566
-0.00105025
0.000887393
-0.000986116
6.6214e-05
-0.00087743
-0.000645393
-0.000750659
-0.00119052
-0.00065432
-0.00156297
-0.000577624
-0.00180627
-0.000528028
-0.00195907
-0.000484968
-0.00206094
-0.000435793
-0.00213287
-0.000375454
-0.00218451
-0.00030735
-0.0022192
-0.000237165
-0.00223777
-0.000169798
-0.00223987
-0.000107655
-0.00222439
-5.03064e-05
-0.00219023
5.66886e-06
-0.00213561
6.47681e-05
-0.00205836
0.00013395
-0.00195661
0.000222352
-0.00182921
0.000342143
-0.00167614
0.000512748
-0.00149527
0.000767365
-0.00126744
0.00116333
-0.0009364
0.00178216
-0.000421903
0.0026709
0.000251237
0.00380154
0.000857039
0.00369803
0.00163201
0.00410426
0.00150105
0.00450453
0.00346855
0.00373331
0.00273285
0.00323234
0.00151439
0.00288959
0.000719859
0.00252495
0.000244569
0.00207731
-4.61052e-05
0.00153305
-0.000223737
0.000911569
-0.00032786
0.000232005
-0.000364692
-0.000463642
-0.000354592
-0.00111192
-0.000337829
-0.00165957
-0.000329764
-0.00207335
-0.000336845
-0.00236464
-0.000362984
-0.00255488
-0.000387324
-0.00268536
-0.000397495
-0.00278515
-0.00038515
-0.00286928
-0.000351677
-0.00294156
-0.000303221
-0.00300144
-0.000247556
-0.00304736
-0.000191338
-0.00307831
-0.000138932
-0.00309377
-9.22533e-05
-0.003093
-5.10881e-05
-0.00307315
-1.41515e-05
-0.00302927
2.0948e-05
-0.00295387
5.86165e-05
-0.00283643
0.000104944
-0.00266474
0.000170414
-0.00242597
0.000273867
-0.00210322
0.000444428
-0.00165806
0.000717959
-0.00101504
0.00113899
-0.000117328
0.00177323
0.000940528
0.00274391
0.00149486
0.003144
0.00330451
-0.00261346
-0.00677729
-0.00740881
-0.00746358
-0.00374863
-0.00215904
-0.00167399
0.0013939
-0.000760312
0.00181914
-0.000559322
0.00131338
-0.00063687
0.000797389
-0.000822771
0.00043045
-0.00106613
0.000197237
-0.0013594
6.9517e-05
-0.00170554
1.82499e-05
-0.00208042
1.01757e-05
-0.00244945
1.44307e-05
-0.00278722
-4.51977e-08
-0.00306201
-5.49261e-05
-0.00324706
-0.000151729
-0.00336373
-0.000246224
-0.00344684
-0.000304143
-0.00352455
-0.000319734
-0.00360753
-0.000302172
-0.00369574
-0.000263526
-0.00378479
-0.000214285
-0.0038693
-0.000163191
-0.00394377
-0.000117024
-0.00400296
-7.98747e-05
-0.00404269
-5.25932e-05
-0.00406036
-3.34205e-05
-0.00405529
-1.91478e-05
-0.00402602
-8.18519e-06
-0.00396479
-2.45931e-06
-0.00385671
-3.0105e-06
-0.00367939
-6.83157e-06
-0.00340471
-8.3284e-07
-0.00300129
4.08585e-05
-0.00242634
0.000142748
-0.00160048
0.000312773
-0.000464382
0.000636777
0.000851399
0.00142797
0.00132073
0.00267461
0.00480892
-0.00736012
0.00103633
-0.00812557
-0.0066981
-0.00717652
-0.00310806
-0.00565577
-0.00012685
-0.00456305
0.000726393
-0.00397074
0.000721023
-0.00371025
0.000536838
-0.00364203
0.000362157
-0.00368279
0.000237936
-0.00377684
0.000163519
-0.00388234
0.000123715
-0.0039708
9.8627e-05
-0.00402736
7.10208e-05
-0.00405769
3.03337e-05
-0.00408182
-3.07006e-05
-0.00411985
-0.000113591
-0.00418133
-0.000184644
-0.00426534
-0.000220066
-0.00436409
-0.000220978
-0.00446697
-0.000199344
-0.00456448
-0.000166147
-0.00464999
-0.000128958
-0.00472002
-9.33619e-05
-0.00477328
-6.39478e-05
-0.00480938
-4.39219e-05
-0.00482807
-3.39773e-05
-0.00482938
-3.21018e-05
-0.00481276
-3.56735e-05
-0.0047769
-4.38601e-05
-0.00471742
-6.16956e-05
-0.00462472
-9.54196e-05
-0.00448255
-0.000148695
-0.00426792
-0.000215162
-0.00395576
-0.000271062
-0.00352697
-0.000285935
-0.00293937
-0.00027491
-0.00194986
-0.000353036
-0.000133474
-0.000388829
0.000832071
0.00170879
0.00583188
0.00157793
-0.0050557
-0.00810093
-0.00816872
-0.00738834
-0.00662107
-0.00604456
-0.00564739
-0.00537736
-0.00518333
-0.00502969
-0.00490097
-0.00479921
-0.00473734
-0.00473598
-0.00481746
-0.00497028
-0.00515895
-0.00534898
-0.00551773
-0.0056535
-0.00575217
-0.00581525
-0.0058489
-0.00586254
-0.00586635
-0.00586856
-0.00587481
-0.00588991
-0.00592374
-0.0059924
-0.00611566
-0.00630692
-0.00655575
-0.00682116
-0.00707711
-0.00741248
-0.00778465
-0.00605991
)
;

boundaryField
{
    floor
    {
        type            calculated;
        value           nonuniform List<scalar> 
36
(
0
0
0
0
0
0
0
0
0
0
0
0
0
0
0
0
0
0
0
-6.43924e-06
-1.68857e-05
-2.60347e-05
-3.43139e-05
-3.49193e-05
-2.85152e-05
-2.8574e-05
-2.92028e-06
-5.44222e-06
-5.68854e-06
-5.90877e-06
-4.85388e-06
-8.93994e-06
-1.02117e-05
-1.28346e-05
-1.44565e-05
-1.5445e-05
)
;
    }
    ceiling
    {
        type            calculated;
        value           nonuniform List<scalar> 
43
(
-5.78076e-05
-6.445e-05
-6.28474e-05
-5.90962e-05
-5.40511e-05
-4.63408e-05
-3.97686e-05
-3.51217e-05
-3.21868e-05
-3.05774e-05
-2.99565e-05
-3.00783e-05
-3.06942e-05
-3.14569e-05
-3.19581e-05
-3.20067e-05
-3.17531e-05
-3.13636e-05
-3.09825e-05
-3.06953e-05
-3.05277e-05
-3.04612e-05
-3.04515e-05
-3.04427e-05
-3.03758e-05
-3.01942e-05
-2.98505e-05
-2.93121e-05
-2.85639e-05
-2.7604e-05
-2.64376e-05
-2.50782e-05
-2.35604e-05
-2.19619e-05
-2.04101e-05
-1.90408e-05
-1.79258e-05
-1.70437e-05
-1.63477e-05
-1.68431e-05
1.93414e-05
1.51858e-05
-0.000246565
)
;
    }
    sWall
    {
        type            calculated;
        value           nonuniform List<scalar> 9(-0.000140239 -0.000164523 -0.000194248 -0.000225956 -0.000245137 -0.000281074 -0.000423616 -0.000453464 -0.000483775);
    }
    nWall
    {
        type            calculated;
        value           nonuniform List<scalar> 
14
(
-9.0045e-05
-9.74434e-05
-0.000102555
-0.000103218
-0.000113503
-0.00012159
-0.000136535
-0.000152247
-0.000165939
-0.000169821
-0.000177434
-0.000183717
-0.000191103
-0.000211517
)
;
    }
    sideWalls
    {
        type            empty;
        value           nonuniform 0();
    }
    glass1
    {
        type            calculated;
        value           nonuniform List<scalar> 9(-6.40347e-05 -0.000170322 -0.000257926 -0.000331212 -0.000393198 -0.000446405 -0.000492218 -0.0005355 -0.000587178);
    }
    glass2
    {
        type            calculated;
        value           nonuniform List<scalar> 2(-0.000364563 -0.000383798);
    }
    sun
    {
        type            calculated;
        value           uniform 0;
    }
    Table_master
    {
        type            calculated;
        value           nonuniform List<scalar> 9(-1.53994e-07 -1.5411e-07 -1.54143e-07 -1.54163e-07 -1.54176e-07 -1.54181e-07 -1.54179e-07 -1.54165e-07 -1.54112e-07);
    }
    Table_slave
    {
        type            calculated;
        value           nonuniform List<scalar> 9(1.53663e-07 1.53719e-07 1.53718e-07 1.53735e-07 1.53756e-07 1.538e-07 1.53867e-07 1.53961e-07 1.54088e-07);
    }
    inlet
    {
        type            calculated;
        value           uniform -0.0116488;
    }
    outlet
    {
        type            calculated;
        value           nonuniform List<scalar> 2(0.00981443 0.012259);
    }
}


// ************************************************************************* //
