/*--------------------------------*- C++ -*----------------------------------*\
  =========                 |
  \\      /  F ield         | OpenFOAM: The Open Source CFD Toolbox
   \\    /   O peration     | Website:  https://openfoam.org
    \\  /    A nd           | Version:  6
     \\/     M anipulation  |
\*---------------------------------------------------------------------------*/
FoamFile
{
    version     2.0;
    format      ascii;
    class       volScalarField;
    location    "1600";
    object      epsilon;
}
// * * * * * * * * * * * * * * * * * * * * * * * * * * * * * * * * * * * * * //

dimensions      [0 2 -3 0 0 0 0];

internalField   nonuniform List<scalar> 
778
(
3.51584e-05
4.6103e-05
9.04061e-05
5.45454e-05
0.000143331
0.000326726
5.86761e-05
0.000122205
0.000179985
0.00081229
5.89626e-05
5.6816e-05
0.000134605
0.000547486
0.00166685
6.46537e-05
4.35503e-05
7.57667e-05
0.000249973
0.00138857
0.00297173
7.27543e-05
4.34516e-05
5.65004e-05
0.000141297
0.000589829
0.00278387
0.00477859
8.01175e-05
4.70649e-05
5.21234e-05
9.56691e-05
0.000318164
0.0012713
0.00464593
0.00716777
8.40765e-05
5.09772e-05
5.4454e-05
7.61429e-05
0.000206113
0.000657706
0.0022995
0.00620239
0.0103114
8.32628e-05
5.36022e-05
5.8205e-05
7.21828e-05
0.000139146
0.000395036
0.00119267
0.00332317
0.00808053
0.0142899
7.89758e-05
5.45109e-05
6.03367e-05
7.37172e-05
0.000107034
0.000279118
0.000668297
0.00177655
0.00444079
0.0104916
0.0193944
7.56302e-05
5.4764e-05
6.03285e-05
7.32447e-05
9.91151e-05
0.000187394
0.000439818
0.000976458
0.00236089
0.00568588
0.0141121
0.0261695
7.92641e-05
5.81645e-05
5.9442e-05
7.00951e-05
9.17302e-05
0.000143836
0.000332714
0.000609218
0.0012621
0.00289537
0.00709959
0.0199321
0.035777
9.79592e-05
7.62468e-05
6.00752e-05
6.62599e-05
8.28397e-05
0.000119912
0.000222735
0.000466355
0.000762518
0.00146132
0.0032311
0.00889606
0.0313112
0.0508614
0.000168377
0.000140334
6.66556e-05
6.39698e-05
7.50589e-05
0.000101123
0.000164125
0.000347411
0.000593684
0.000864265
0.00146838
0.00310657
0.00985035
0.0592063
0.0797989
0.000330428
8.67807e-05
6.55095e-05
7.04335e-05
8.80465e-05
0.000128227
0.000228952
0.000467852
0.0007106
0.0008988
0.00127853
0.00267055
0.0170404
0.140285
0.000397885
0.000134958
7.37411e-05
7.01546e-05
8.12824e-05
0.00010713
0.000165787
0.000303661
0.000552679
0.000800042
0.00094723
0.00122618
0.0028555
0.216692
0.000565287
0.000312012
9.37441e-05
7.52835e-05
8.06281e-05
9.71819e-05
0.000132643
0.000209874
0.000365867
0.00059183
0.000843965
0.0010311
0.001485
0.0122371
0.609144
0.000411224
0.000677473
0.000145466
8.78842e-05
8.57455e-05
9.55714e-05
0.000117365
0.000161853
0.000249172
0.000389181
0.00058999
0.000844043
0.00117101
0.00223151
0.160828
0.240297
0.000839555
0.0003311
0.000114542
9.67521e-05
9.99567e-05
0.000113016
0.000139401
0.000188796
0.000268707
0.000387072
0.000564908
0.000841589
0.00142411
0.00693201
0.071177
0.122069
0.00158919
0.000196829
0.00011499
0.000108353
0.000114893
0.000130728
0.000160365
0.000208343
0.000279113
0.000386835
0.000569841
0.000956487
0.00228452
0.0130554
0.0477308
0.0217512
0.0496444
0.00113653
0.000561449
0.000146601
0.000119011
0.000119676
0.000128914
0.000148224
0.000181267
0.000232251
0.00031004
0.000445648
0.000747016
0.00166651
0.00573243
0.0249812
0.0333028
0.00519095
0.0168215
0.0210995
0.00189501
0.000730834
0.000212713
0.00013139
0.000125149
0.000130057
0.000143908
0.000171074
0.000217147
0.000291108
0.000423649
0.000725161
0.00162161
0.00494541
0.0176582
0.027051
0.0197765
0.00414371
0.0132016
0.000984637
0.000758687
0.00046046
0.000236419
0.00014704
0.000130613
0.000132135
0.000143239
0.000169254
0.000217703
0.000300875
0.000455059
0.000806052
0.0018055
0.00519723
0.0166544
0.0252156
0.018256
0.0044728
0.000511111
0.00137313
0.000312474
0.000288698
0.000199259
0.000154731
0.000136422
0.000134651
0.000144512
0.000171682
0.000226019
0.000324395
0.000511619
0.000933193
0.00208793
0.00570455
0.0171659
0.0255169
0.0170968
0.000164205
0.000917786
0.0004359
0.000162987
0.00016933
0.00016471
0.000150862
0.000140747
0.000137744
0.000147046
0.000176444
0.000238288
0.00035442
0.000578897
0.00107671
0.00238166
0.00625653
0.0177954
0.0273015
0.0161653
0.000188778
0.000288068
0.000202238
0.000112626
0.000122636
0.000136414
0.000144121
0.000142513
0.000141177
0.000150693
0.000182702
0.000252608
0.000387237
0.000649407
0.00122035
0.00265726
0.00667713
0.0181831
0.0297189
0.0156245
5.9188e-05
0.00012622
0.00011749
0.000179402
0.000107293
0.000123643
0.000137898
0.000143323
0.000144727
0.00015538
0.000190135
0.000267982
0.00042069
0.000718818
0.00135502
0.00289648
0.00699796
0.0182958
0.0319954
0.0155778
2.80255e-05
7.08199e-05
0.000137449
0.000118415
0.000107932
0.000119865
0.000136167
0.000144912
0.00014904
0.000161195
0.000198655
0.000283872
0.000453402
0.000784359
0.00147593
0.00309009
0.00721503
0.0181449
0.033658
0.0159406
1.76507e-05
4.94725e-05
8.17602e-05
9.09939e-05
0.000101206
0.000119896
0.00013817
0.00014916
0.000155121
0.00016856
0.000208348
0.000300021
0.000484524
0.000844157
0.00158095
0.00323899
0.00732197
0.0177839
0.034541
0.0165855
1.27183e-05
3.56418e-05
5.37646e-05
7.52057e-05
9.56151e-05
0.000120572
0.000143057
0.000156682
0.00016398
0.00017807
0.000219468
0.000316374
0.000513571
0.000897446
0.00166845
0.00334921
0.00734355
0.0172924
0.0346955
0.0173629
1.0985e-05
2.66329e-05
3.7394e-05
6.39438e-05
9.09673e-05
0.000122289
0.000150655
0.000167794
0.000176294
0.000190359
0.000232387
0.000333051
0.000540385
0.000943808
0.0017409
0.00342166
0.00730344
0.0167292
0.0342825
0.0181326
9.83636e-06
2.06714e-05
2.68423e-05
5.52261e-05
8.76705e-05
0.000125898
0.000161254
0.000182992
0.000192707
0.000206041
0.000247571
0.000350328
0.000565102
0.000983283
0.00179899
0.00347388
0.00722125
0.0161397
0.033496
0.0187879
8.02016e-06
1.56514e-05
1.95633e-05
5.02259e-05
8.808e-05
0.000132941
0.000176085
0.0002032
0.000214064
0.000225825
0.000265591
0.000368644
0.000588071
0.00101666
0.00184278
0.00350887
0.00710478
0.0155568
0.0325127
0.0192674
6.2688e-06
1.13438e-05
1.42879e-05
5.73987e-05
9.79715e-05
0.000146054
0.000196975
0.00023001
0.000241584
0.000250624
0.000287164
0.000388641
0.000609843
0.00104488
0.00187578
0.00352122
0.00696449
0.0150031
0.0314696
0.0195519
4.79656e-06
7.97832e-06
1.04588e-05
0.000129755
0.000130473
0.000169718
0.00022649
0.000265673
0.00027702
0.000281663
0.000313213
0.000411155
0.000631458
0.00106822
0.0019025
0.00351243
0.00681603
0.0144931
0.0304625
0.0196543
3.66963e-06
5.91727e-06
1.23805e-05
0.000185998
0.00021652
0.000211659
0.000268366
0.000313368
0.00032281
0.000320614
0.000344937
0.000437292
0.000654061
0.00108949
0.00191779
0.00348256
0.0066673
0.0140352
0.0295513
0.0196064
2.9758e-06
7.00719e-06
5.38208e-05
0.000480972
0.00039907
0.000286441
0.00032838
0.000377784
0.000382413
0.000369801
0.000383945
0.000468454
0.000679432
0.00110978
0.0019212
0.00344198
0.00652321
0.0136324
0.0287686
0.0194477
3.40169e-06
2.1165e-05
0.000227299
0.00182556
0.00080448
0.000424446
0.000416501
0.000466251
0.000460922
0.000432588
0.000432438
0.000506643
0.000709103
0.00112706
0.00191537
0.00339577
0.00638718
0.013284
0.028127
0.0192177
8.70183e-06
0.000135302
0.00100055
0.00143322
0.00173835
0.000703129
0.000553527
0.0005893
0.000565119
0.000513205
0.000492359
0.000551516
0.000740922
0.00114228
0.00190687
0.00334829
0.00626191
0.0129874
0.027626
0.018951
3.06973e-05
0.000600186
0.000799243
0.00371392
0.00130887
0.000783443
0.000765613
0.000708341
0.000620033
0.00056801
0.000605309
0.000778167
0.00116109
0.00190012
0.0033039
0.00614991
0.0127389
0.0272573
0.0186748
0.000141375
0.000415092
0.00319178
0.00263794
0.00121957
0.00103846
0.000916481
0.000768908
0.000668371
0.000673139
0.00082478
0.00118746
0.00189997
0.00326716
0.00605392
0.0125348
0.0270085
0.0184083
0.000161387
0.00358334
0.00577402
0.00222332
0.00151145
0.00124096
0.000989304
0.000809371
0.000762485
0.000884958
0.00122539
0.00191137
0.00324306
0.00597741
0.0123723
0.026866
0.0181636
0.00367394
0.00806986
0.00564525
0.00256105
0.0017993
0.00133986
0.00102227
0.000886939
0.000964509
0.00127921
0.00193917
0.00323723
0.00592479
0.0122501
0.0268181
0.0179461
0.00760745
0.0173633
0.00700968
0.00296366
0.0019442
0.00137251
0.00107445
0.00107324
0.00135398
0.00198865
0.00325578
0.00590161
0.0121694
0.0268562
0.0177566
0.0141523
0.0302989
0.00719306
0.00309961
0.00200315
0.00138824
0.00123127
0.00145653
0.00206543
0.00330542
0.00591462
0.0121338
0.0269766
0.0175926
0.0249194
0.0319871
0.00575583
0.00324442
0.00198131
0.0014878
0.00159876
0.00217534
0.00339303
0.00597172
0.0121502
0.0271811
0.0174495
0.0255656
0.0128575
0.00595917
0.00324064
0.00197941
0.00181011
0.00232519
0.00352497
0.00608147
0.0122284
0.027477
0.0173222
0.00698372
0.0123937
0.00622154
0.0031108
0.00218744
0.00252812
0.00370585
0.00625164
0.0123804
0.0278766
0.0172058
0.00656959
0.0137428
0.00612451
0.00309067
0.00283677
0.00393849
0.00648594
0.0126174
0.0283943
0.0170962
0.00757815
0.0143007
0.00585677
0.00351789
0.00424252
0.00677861
0.0129443
0.0290414
0.0169904
0.00832471
0.013815
0.00583012
0.00479829
0.00711838
0.0133465
0.0298138
0.0168854
0.00883376
0.0126773
0.00668762
0.00759455
0.0137797
0.0306668
0.0167756
0.00951668
0.012005
0.00906966
0.014243
0.0315027
0.0166479
0.0107733
0.0133018
0.0153576
0.0323543
0.0164784
0.0130808
0.0184551
0.034698
0.0162544
0.0172887
0.0314033
0.0160668
0.023458
0.0145888
0.0110148
)
;

boundaryField
{
    floor
    {
        Cmu             0.09;
        kappa           0.41;
        E               9.8;
        type            epsilonWallFunction;
        value           nonuniform List<scalar> 
36
(
0.000168377
0.000164205
0.000188778
5.9188e-05
2.80255e-05
1.76507e-05
1.27183e-05
1.0985e-05
9.83636e-06
8.02016e-06
6.2688e-06
4.79656e-06
3.66963e-06
2.9758e-06
3.40169e-06
8.70183e-06
3.06973e-05
0.000141375
0.000161387
0.000161387
0.000415092
0.000799243
0.00143322
0.00319178
0.00358334
0.00367394
0.000168377
0.000397885
0.000565287
0.000411224
0.000164205
0.000411224
0.000511111
0.000839555
0.000984637
0.00113653
)
;
    }
    ceiling
    {
        Cmu             0.09;
        kappa           0.41;
        E               9.8;
        type            epsilonWallFunction;
        value           nonuniform List<scalar> 
43
(
0.0044728
0.0132016
0.0210995
0.0197765
0.018256
0.0170968
0.0161653
0.0156245
0.0155778
0.0159406
0.0165855
0.0173629
0.0181326
0.0187879
0.0192674
0.0195519
0.0196543
0.0196064
0.0194477
0.0192177
0.018951
0.0186748
0.0184083
0.0181636
0.0179461
0.0177566
0.0175926
0.0174495
0.0173222
0.0172058
0.0170962
0.0169904
0.0168854
0.0167756
0.0166479
0.0164784
0.0162544
0.0160668
0.0145888
0.0110148
0.0797989
0.140285
0.240297
)
;
    }
    sWall
    {
        Cmu             0.09;
        kappa           0.41;
        E               9.8;
        type            epsilonWallFunction;
        value           nonuniform List<scalar> 9(0.0142899 0.0193944 0.0261695 0.035777 0.0508614 0.0797989 0.00519095 0.00414371 0.0044728);
    }
    nWall
    {
        Cmu             0.09;
        kappa           0.41;
        E               9.8;
        type            epsilonWallFunction;
        value           nonuniform List<scalar> 
14
(
0.00367394
0.00760745
0.0141523
0.00698372
0.00656959
0.00757815
0.00832471
0.00883376
0.00951668
0.0107733
0.0130808
0.0172887
0.023458
0.0110148
)
;
    }
    sideWalls
    {
        type            empty;
    }
    glass1
    {
        Cmu             0.09;
        kappa           0.41;
        E               9.8;
        type            epsilonWallFunction;
        value           nonuniform List<scalar> 9(3.51584e-05 9.04061e-05 0.000326726 0.00081229 0.00166685 0.00297173 0.00477859 0.00716777 0.0103114);
    }
    glass2
    {
        Cmu             0.09;
        kappa           0.41;
        E               9.8;
        type            epsilonWallFunction;
        value           nonuniform List<scalar> 2(0.0249194 0.0255656);
    }
    sun
    {
        Cmu             0.09;
        kappa           0.41;
        E               9.8;
        type            epsilonWallFunction;
        value           nonuniform List<scalar> 
14
(
3.51584e-05
4.6103e-05
5.45454e-05
5.86761e-05
5.89626e-05
6.46537e-05
7.27543e-05
8.01175e-05
8.40765e-05
8.32628e-05
7.89758e-05
7.56302e-05
7.92641e-05
9.79592e-05
)
;
    }
    Table_master
    {
        Cmu             0.09;
        kappa           0.41;
        E               9.8;
        type            epsilonWallFunction;
        value           nonuniform List<scalar> 9(0.000137449 8.17602e-05 5.37646e-05 3.7394e-05 2.68423e-05 1.95633e-05 1.42879e-05 1.04588e-05 1.23805e-05);
    }
    Table_slave
    {
        Cmu             0.09;
        kappa           0.41;
        E               9.8;
        type            epsilonWallFunction;
        value           nonuniform List<scalar> 9(0.000179402 0.000118415 9.09939e-05 7.52057e-05 6.39438e-05 5.52261e-05 5.02259e-05 5.73987e-05 0.000129755);
    }
    inlet
    {
        type            fixedValue;
        value           uniform 0.00082175;
    }
    outlet
    {
        type            zeroGradient;
    }
}


// ************************************************************************* //
