/*--------------------------------*- C++ -*----------------------------------*\
  =========                 |
  \\      /  F ield         | OpenFOAM: The Open Source CFD Toolbox
   \\    /   O peration     | Website:  https://openfoam.org
    \\  /    A nd           | Version:  6
     \\/     M anipulation  |
\*---------------------------------------------------------------------------*/
FoamFile
{
    version     2.0;
    format      ascii;
    class       volScalarField;
    location    "1600";
    object      T;
}
// * * * * * * * * * * * * * * * * * * * * * * * * * * * * * * * * * * * * * //

dimensions      [0 0 0 1 0 0 0];

internalField   nonuniform List<scalar> 
778
(
302.519
302.195
302.738
302.178
302.225
302.962
302.171
302.195
302.274
303.18
302.166
302.195
302.229
302.336
303.388
302.161
302.196
302.239
302.264
302.411
303.583
302.156
302.196
302.253
302.285
302.3
302.498
303.751
302.151
302.196
302.266
302.313
302.325
302.338
302.595
303.904
302.145
302.194
302.278
302.342
302.366
302.357
302.385
302.738
304.112
302.14
302.191
302.287
302.369
302.409
302.405
302.381
302.477
303.195
304.098
302.134
302.186
302.292
302.392
302.451
302.457
302.43
302.411
302.802
303.511
304.102
302.126
302.178
302.292
302.41
302.491
302.511
302.484
302.445
302.552
303.131
303.654
304.135
302.115
302.163
302.285
302.419
302.525
302.563
302.54
302.495
302.483
302.828
303.333
303.747
304.202
302.103
302.141
302.266
302.415
302.545
302.609
302.594
302.545
302.505
302.657
303.068
303.479
303.872
304.143
302.089
302.11
302.233
302.393
302.548
302.643
302.644
302.593
302.545
302.595
302.888
303.264
303.627
303.888
304.29
302.072
302.183
302.348
302.526
302.654
302.684
302.638
302.583
302.589
302.789
303.108
303.442
303.69
304.105
302.042
302.124
302.279
302.471
302.639
302.711
302.685
302.626
302.61
302.751
303.012
303.31
303.558
303.761
302.02
302.066
302.193
302.38
302.58
302.71
302.729
302.69
302.667
302.755
302.967
303.225
303.453
303.517
294.548
302.007
302.017
302.106
302.265
302.467
302.651
302.735
302.746
302.744
302.805
302.965
303.181
303.376
303.358
296.172
294.756
301.98
302.028
302.146
302.321
302.516
302.668
302.747
302.79
302.855
302.986
303.166
303.321
303.236
297.808
295.488
297.238
301.967
302.041
302.173
302.345
302.525
302.66
302.757
302.849
302.971
303.12
303.241
303.113
298.73
296.231
296.519
298.799
299.91
301.936
301.968
302.046
302.176
302.338
302.493
302.624
302.741
302.861
302.976
303.023
302.739
299.028
296.846
297.401
299.382
300.17
300.431
301.258
301.915
301.923
301.961
302.039
302.155
302.288
302.417
302.535
302.639
302.706
302.651
302.161
299.065
297.392
298.519
299.649
301.316
300.568
301.21
301.927
301.905
301.904
301.914
301.948
302.011
302.097
302.192
302.28
302.347
302.353
302.2
301.582
299.172
298.141
299.438
300.283
301.414
301.204
301.948
301.915
301.902
301.895
301.893
301.898
301.919
301.956
302.002
302.044
302.06
302.007
301.787
301.156
299.442
299.004
300.133
300.85
301.646
302.008
301.934
301.912
301.902
301.894
301.886
301.879
301.874
301.875
301.878
301.874
301.843
301.747
301.505
300.957
299.855
299.791
300.64
301.284
301.881
301.981
301.93
301.912
301.903
301.896
301.887
301.877
301.862
301.845
301.822
301.787
301.727
301.611
301.387
300.973
300.337
300.441
301.058
301.599
302.061
301.974
301.929
301.913
301.904
301.898
301.892
301.883
301.869
301.848
301.816
301.771
301.702
301.591
301.41
301.133
300.822
300.975
301.416
301.832
302.187
301.973
301.93
301.916
301.905
301.9
301.897
301.892
301.883
301.867
301.84
301.8
301.74
301.652
301.526
301.362
301.241
301.441
301.711
302.01
302.274
301.974
301.933
301.92
301.906
301.902
301.901
301.899
301.896
301.889
301.873
301.847
301.808
301.751
301.678
301.606
301.582
301.748
301.942
302.142
302.335
301.978
301.936
301.923
301.907
301.904
301.904
301.905
301.907
301.907
301.903
301.894
301.877
301.852
301.826
301.81
301.861
301.96
302.098
302.236
302.378
301.983
301.94
301.926
301.908
301.906
301.907
301.909
301.914
301.92
301.924
301.928
301.93
301.931
301.937
301.964
302.017
302.096
302.196
302.295
302.405
301.989
301.943
301.929
301.909
301.907
301.908
301.912
301.918
301.927
301.936
301.947
301.96
301.977
302.004
302.041
302.093
302.164
302.247
302.328
302.421
301.995
301.947
301.933
301.91
301.909
301.91
301.914
301.92
301.93
301.941
301.954
301.97
301.992
302.022
302.064
302.119
302.189
302.268
302.342
302.429
302
301.951
301.936
301.911
301.91
301.911
301.914
301.921
301.93
301.941
301.954
301.968
301.988
302.018
302.06
302.118
302.191
302.271
302.345
302.43
302.006
301.955
301.939
301.912
301.911
301.912
301.915
301.921
301.929
301.939
301.95
301.962
301.978
302.004
302.046
302.105
302.182
302.265
302.34
302.427
302.012
301.96
301.944
301.926
301.912
301.912
301.915
301.92
301.927
301.936
301.945
301.955
301.968
301.99
302.028
302.088
302.168
302.255
302.332
302.422
302.018
301.966
301.951
301.943
301.917
301.913
301.915
301.919
301.925
301.932
301.94
301.948
301.959
301.977
302.012
302.071
302.153
302.242
302.323
302.415
302.024
301.974
301.963
301.967
301.93
301.915
301.914
301.918
301.923
301.929
301.935
301.942
301.951
301.966
301.997
302.054
302.139
302.231
302.314
302.408
302.031
301.987
301.984
302.037
301.953
301.923
301.915
301.917
301.92
301.926
301.931
301.937
301.945
301.958
301.985
302.041
302.127
302.222
302.307
302.404
302.039
302.006
302.047
302.012
301.941
301.92
301.916
301.919
301.923
301.927
301.933
301.939
301.951
301.976
302.03
302.119
302.217
302.303
302.401
302.049
302.059
302.025
301.981
301.932
301.919
301.918
301.92
301.924
301.929
301.935
301.945
301.968
302.021
302.113
302.217
302.304
302.403
302.083
302.041
301.996
301.958
301.927
301.919
301.919
301.922
301.926
301.931
301.941
301.963
302.015
302.111
302.22
302.31
302.408
302.142
302.013
301.975
301.944
301.924
301.919
301.92
301.923
301.928
301.938
301.959
302.009
302.11
302.226
302.32
302.417
302.153
301.994
301.961
301.937
301.924
301.92
301.922
301.926
301.936
301.956
302.006
302.108
302.233
302.333
302.43
302.133
302.003
301.969
301.946
301.925
301.923
301.927
301.936
301.955
302.004
302.104
302.24
302.348
302.446
302.311
302.055
302.123
301.965
301.931
301.932
301.942
301.96
302.004
302.1
302.241
302.362
302.462
302.465
302.265
302.162
301.972
301.949
301.96
301.977
302.01
302.096
302.236
302.372
302.476
302.473
302.321
302.143
302
302.001
302.017
302.03
302.094
302.226
302.376
302.486
302.49
302.304
302.137
302.066
302.084
302.075
302.101
302.215
302.37
302.49
302.492
302.276
302.174
302.174
302.154
302.129
302.208
302.355
302.488
302.45
302.285
302.273
302.261
302.186
302.21
302.339
302.479
302.446
302.36
302.372
302.272
302.232
302.326
302.468
302.493
302.454
302.371
302.278
302.324
302.458
302.541
302.454
302.346
302.335
302.454
302.545
302.414
302.361
302.458
302.49
302.404
302.468
302.481
302.48
302.52
)
;

boundaryField
{
    floor
    {
        type            wallHeatTransfer;
        Tinf            uniform 305.2;
        alphaWall       uniform 0.36;
        value           nonuniform List<scalar> 
36
(
302.508
302.563
302.524
302.514
302.518
302.532
302.555
302.582
302.61
302.638
302.665
302.692
302.718
302.743
302.769
302.796
302.827
302.859
302.934
302.934
302.816
302.752
302.704
302.628
302.539
302.637
302.508
302.44
302.429
302.423
302.563
302.423
302.403
302.348
302.324
302.301
)
;
    }
    ceiling
    {
        type            wallHeatTransfer;
        Tinf            uniform 303.2;
        alphaWall       uniform 0.36;
        value           nonuniform List<scalar> 
43
(
301.371
301.404
301.453
301.502
301.587
301.797
302.013
302.181
302.3
302.383
302.443
302.486
302.516
302.534
302.542
302.544
302.542
302.536
302.53
302.523
302.518
302.515
302.516
302.519
302.526
302.535
302.547
302.558
302.567
302.573
302.574
302.568
302.558
302.544
302.532
302.526
302.526
302.533
302.542
302.58
304.198
304.031
295.371
)
;
    }
    sWall
    {
        type            wallHeatTransfer;
        Tinf            uniform 315.2;
        alphaWall       uniform 0.54;
        value           nonuniform List<scalar> 9(305.132 305.186 305.293 305.439 305.386 305.616 301.918 302.304 302.898);
    }
    nWall
    {
        type            wallHeatTransfer;
        Tinf            uniform 308.2;
        alphaWall       uniform 0.54;
        value           nonuniform List<scalar> 
14
(
303.506
303.358
303.212
303.225
303.242
303.239
303.167
303.155
303.223
303.29
303.291
303.187
303.156
303.238
)
;
    }
    sideWalls
    {
        type            empty;
    }
    glass1
    {
        type            wallHeatTransfer;
        Tinf            uniform 315.2;
        alphaWall       uniform 4.3;
        value           nonuniform List<scalar> 9(311.733 310.943 310.436 310.041 309.721 309.458 309.226 309.055 309.093);
    }
    glass2
    {
        type            wallHeatTransfer;
        Tinf            uniform 308.2;
        alphaWall       uniform 4.3;
        value           nonuniform List<scalar> 2(305.727 305.623);
    }
    sun
    {
        type            wallHeatTransfer;
        Tinf            uniform 305.2;
        alphaWall       uniform 0.36;
        value           nonuniform List<scalar> 
14
(
302.997
302.709
302.695
302.675
302.658
302.643
302.63
302.617
302.605
302.592
302.579
302.565
302.548
302.529
)
;
    }
    Table_master
    {
        type            zeroGradient;
    }
    Table_slave
    {
        type            zeroGradient;
    }
    inlet
    {
        type            fixedValue;
        value           uniform 293.15;
    }
    outlet
    {
        type            zeroGradient;
    }
}


// ************************************************************************* //
