/*--------------------------------*- C++ -*----------------------------------*\
  =========                 |
  \\      /  F ield         | OpenFOAM: The Open Source CFD Toolbox
   \\    /   O peration     | Website:  https://openfoam.org
    \\  /    A nd           | Version:  6
     \\/     M anipulation  |
\*---------------------------------------------------------------------------*/
FoamFile
{
    version     2.0;
    format      ascii;
    class       volScalarField;
    location    "46900.0000005676629";
    object      T;
}
// * * * * * * * * * * * * * * * * * * * * * * * * * * * * * * * * * * * * * //

dimensions      [0 0 0 1 0 0 0];

internalField   nonuniform List<scalar> 
778
(
302.565
302.246
302.23
302.225
302.22
302.216
302.212
302.207
302.202
302.198
302.192
302.184
302.175
302.164
302.154
302.223
302.094
302.086
302.085
302.087
302.091
302.095
302.1
302.105
302.11
302.115
302.12
302.125
302.13
302.135
302.142
302.15
302.182
302.778
302.277
302.245
302.244
302.245
302.245
302.245
302.243
302.239
302.234
302.226
302.212
302.192
302.166
302.138
302.119
302.105
302.101
302.082
302.063
302.056
302.053
302.052
302.054
302.056
302.057
302.059
302.061
302.063
302.065
302.068
302.072
302.079
302.09
302.106
302.158
302.994
302.324
302.272
302.278
302.289
302.299
302.307
302.313
302.315
302.313
302.304
302.285
302.254
302.213
302.167
302.127
302.095
302.075
302.049
302.041
302.039
302.039
302.04
302.041
302.042
302.044
302.045
302.046
302.047
302.048
302.05
302.052
302.057
302.067
302.084
302.145
303.204
302.385
302.303
302.315
302.336
302.358
302.379
302.395
302.407
302.411
302.403
302.378
302.335
302.274
302.207
302.146
302.097
302.062
302.047
302.036
302.032
302.032
302.033
302.034
302.035
302.035
302.036
302.036
302.036
302.037
302.037
302.037
302.037
302.043
302.053
302.071
302.136
303.405
302.459
302.335
302.349
302.38
302.414
302.448
302.479
302.503
302.517
302.513
302.484
302.425
302.341
302.248
302.164
302.099
302.057
302.035
302.028
302.027
302.029
302.031
302.034
302.036
302.037
302.038
302.039
302.039
302.039
302.039
302.038
302.038
302.039
302.045
302.061
302.113
302.125
302.138
302.235
303.594
302.544
302.372
302.377
302.415
302.458
302.503
302.547
302.587
302.613
302.617
302.586
302.512
302.4
302.279
302.173
302.095
302.049
302.027
302.021
302.022
302.027
302.032
302.037
302.04
302.042
302.043
302.043
302.043
302.043
302.042
302.041
302.04
302.039
302.042
302.052
302.085
302.098
302.112
302.245
303.757
302.639
302.42
302.401
302.439
302.485
302.535
302.585
302.635
302.675
302.692
302.664
302.575
302.436
302.291
302.171
302.086
302.037
302.016
302.013
302.019
302.028
302.036
302.042
302.046
302.048
302.049
302.049
302.048
302.047
302.045
302.044
302.042
302.04
302.04
302.047
302.066
302.079
302.096
302.227
303.91
302.783
302.516
302.436
302.457
302.499
302.544
302.592
302.642
302.701
302.731
302.7
302.597
302.444
302.285
302.153
302.064
302.017
302.002
302.006
302.019
302.033
302.044
302.051
302.055
302.057
302.057
302.055
302.053
302.051
302.049
302.046
302.043
302.041
302.04
302.043
302.055
302.067
302.105
302.405
304.118
303.232
302.844
302.589
302.504
302.516
302.552
302.593
302.65
302.719
302.754
302.712
302.589
302.418
302.246
302.111
302.027
301.991
301.988
302.003
302.023
302.042
302.055
302.063
302.066
302.066
302.064
302.061
302.058
302.055
302.051
302.048
302.045
302.042
302.04
302.042
302.05
302.077
302.153
302.552
304.103
303.535
303.163
302.863
302.687
302.618
302.609
302.633
302.703
302.773
302.786
302.708
302.546
302.35
302.172
302.045
301.979
301.962
301.977
302.006
302.035
302.058
302.071
302.076
302.076
302.074
302.07
302.065
302.061
302.057
302.053
302.049
302.045
302.042
302.041
302.043
302.066
302.227
302.345
302.557
304.107
303.67
303.356
303.096
302.915
302.816
302.778
302.787
302.836
302.865
302.815
302.666
302.451
302.233
302.061
301.961
301.926
301.94
301.978
302.021
302.056
302.079
302.088
302.089
302.085
302.079
302.073
302.067
302.062
302.057
302.053
302.049
302.045
302.043
302.041
302.047
302.126
302.306
302.424
302.573
304.139
303.758
303.494
303.282
303.128
303.034
302.991
302.991
302.994
302.938
302.781
302.538
302.275
302.057
301.921
301.87
301.883
301.934
301.997
302.051
302.087
302.103
302.105
302.098
302.09
302.081
302.074
302.067
302.062
302.057
302.053
302.049
302.046
302.043
302.043
302.054
302.147
302.335
302.463
302.598
304.205
303.877
303.634
303.451
303.319
303.233
303.186
303.158
303.07
302.872
302.577
302.257
301.993
301.829
301.772
301.797
301.871
301.96
302.04
302.096
302.123
302.126
302.118
302.106
302.094
302.084
302.075
302.069
302.063
302.058
302.054
302.05
302.048
302.047
302.049
302.062
302.136
302.312
302.437
302.576
304.139
303.889
303.681
303.539
303.424
303.333
303.256
303.124
302.848
302.466
302.08
301.786
301.627
301.598
301.663
301.781
301.911
302.027
302.108
302.149
302.156
302.146
302.131
302.116
302.103
302.092
302.082
302.074
302.068
302.063
302.06
302.057
302.057
302.06
302.07
302.09
302.146
302.289
302.397
302.519
304.28
304.088
303.617
303.296
303.093
302.927
302.735
302.361
301.887
301.491
301.264
301.216
301.304
301.472
301.669
301.862
302.019
302.132
302.182
302.194
302.186
302.17
302.154
302.138
302.125
302.113
302.102
302.093
302.086
302.081
302.078
302.078
302.085
302.101
302.126
302.157
302.201
302.301
302.384
302.506
294.643
296.445
298.141
299.041
299.384
299.57
299.821
300.15
300.525
300.906
301.266
301.581
301.838
302.047
302.167
302.225
302.242
302.237
302.224
302.209
302.195
302.183
302.172
302.162
302.152
302.141
302.132
302.126
302.124
302.129
302.144
302.174
302.216
302.263
302.312
302.372
302.432
302.541
294.923
295.748
296.643
297.502
298.273
298.998
299.684
300.3
300.825
301.263
301.638
301.917
302.104
302.222
302.281
302.299
302.298
302.289
302.278
302.269
302.262
302.257
302.254
302.25
302.245
302.235
302.223
302.212
302.206
302.207
302.22
302.252
302.3
302.36
302.426
302.488
302.532
302.593
299.76
298.684
297.307
296.751
297.505
298.507
299.41
300.145
300.719
301.162
301.523
301.813
302.038
302.197
302.295
302.345
302.362
302.362
302.356
302.35
302.346
302.345
302.347
302.351
302.356
302.36
302.359
302.353
302.341
302.324
302.31
302.301
302.303
302.32
302.352
302.398
302.452
302.508
302.565
302.642
300.117
299.987
299.4
298.878
299.281
300.002
300.664
301.185
301.573
301.856
302.063
302.213
302.317
302.381
302.412
302.423
302.423
302.419
302.415
302.414
302.416
302.422
302.431
302.442
302.453
302.461
302.464
302.461
302.45
302.434
302.416
302.402
302.395
302.396
302.409
302.432
302.462
302.496
302.543
302.603
300.841
300.829
300.883
300.972
301.128
301.473
301.798
302.045
302.219
302.336
302.414
302.462
302.489
302.502
302.505
302.503
302.499
302.496
302.495
302.498
302.504
302.514
302.526
302.538
302.549
302.555
302.557
302.553
302.545
302.534
302.522
302.513
302.508
302.509
302.517
302.531
302.551
302.574
302.598
302.642
)
;

boundaryField
{
    floor
    {
        type            wallHeatTransfer;
        Tinf            uniform 305.2;
        alphaWall       uniform 0.36;
        value           nonuniform List<scalar> 
36
(
302.544
302.868
302.622
302.613
302.621
302.639
302.665
302.693
302.722
302.751
302.779
302.806
302.832
302.858
302.883
302.91
302.94
302.968
303.04
303.04
302.909
302.841
302.792
302.711
302.622
302.716
302.544
302.487
302.488
302.498
302.868
302.498
302.535
302.417
302.434
302.394
)
;
    }
    ceiling
    {
        type            wallHeatTransfer;
        Tinf            uniform 303.2;
        alphaWall       uniform 0.36;
        value           nonuniform List<scalar> 
43
(
301.028
301.042
301.092
301.169
301.307
301.626
301.929
302.16
302.323
302.435
302.51
302.559
302.588
302.604
302.609
302.609
302.605
302.603
302.601
302.603
302.607
302.614
302.623
302.632
302.639
302.642
302.641
302.636
302.627
302.615
302.603
302.593
302.586
302.585
302.589
302.599
302.615
302.633
302.652
302.692
304.19
304.016
295.883
)
;
    }
    sWall
    {
        type            wallHeatTransfer;
        Tinf            uniform 315.2;
        alphaWall       uniform 0.54;
        value           nonuniform List<scalar> 9(305.123 305.181 305.292 305.437 305.375 305.601 301.389 301.765 302.494);
    }
    nWall
    {
        type            wallHeatTransfer;
        Tinf            uniform 308.2;
        alphaWall       uniform 0.54;
        value           nonuniform List<scalar> 
14
(
303.58
303.435
303.294
303.305
303.329
303.366
303.337
303.259
303.241
303.281
303.349
303.382
303.282
303.362
)
;
    }
    sideWalls
    {
        type            empty;
    }
    glass1
    {
        type            wallHeatTransfer;
        Tinf            uniform 315.2;
        alphaWall       uniform 4.3;
        value           nonuniform List<scalar> 9(311.625 310.812 310.3 309.912 309.605 309.358 309.142 308.996 309.046);
    }
    glass2
    {
        type            wallHeatTransfer;
        Tinf            uniform 308.2;
        alphaWall       uniform 4.3;
        value           nonuniform List<scalar> 2(305.78 305.675);
    }
    sun
    {
        type            wallHeatTransfer;
        Tinf            uniform 305.2;
        alphaWall       uniform 0.36;
        value           nonuniform List<scalar> 
14
(
303.018
302.731
302.719
302.7
302.684
302.669
302.656
302.643
302.631
302.618
302.605
302.591
302.576
302.56
)
;
    }
    Table_master
    {
        type            zeroGradient;
    }
    Table_slave
    {
        type            zeroGradient;
    }
    inlet
    {
        type            fixedValue;
        value           uniform 293.15;
    }
    outlet
    {
        type            zeroGradient;
    }
}


// ************************************************************************* //
