/*--------------------------------*- C++ -*----------------------------------*\
  =========                 |
  \\      /  F ield         | OpenFOAM: The Open Source CFD Toolbox
   \\    /   O peration     | Website:  https://openfoam.org
    \\  /    A nd           | Version:  6
     \\/     M anipulation  |
\*---------------------------------------------------------------------------*/
FoamFile
{
    version     2.0;
    format      ascii;
    class       volScalarField;
    location    "450";
    object      alphat;
}
// * * * * * * * * * * * * * * * * * * * * * * * * * * * * * * * * * * * * * //

dimensions      [1 -1 -1 0 0 0 0];

internalField   nonuniform List<scalar> 
775
(
0.000478275
0.000531626
0.000545995
0.000576597
0.000604031
0.000628503
0.000650876
0.000672071
0.000693209
0.000712807
0.00072718
0.000735118
0.000736492
0.00073386
0.000730097
0.000293271
0.000333952
0.000337301
0.000333717
0.000325294
0.00032228
0.000324205
0.000328057
0.000335694
0.000352105
0.000355639
0.000335381
0.000293561
0.00048793
0.000659777
0.000871862
0.00097875
0.000823228
0.000657174
0.0017297
0.00162843
0.00182785
0.00204673
0.00228887
0.00254011
0.00277857
0.00297106
0.00310892
0.00319045
0.00317261
0.00298233
0.00250766
0.00166021
0.000790384
0.000720301
0.000673412
0.000360305
0.00116226
0.00122354
0.00139247
0.00148289
0.00151663
0.00146611
0.00128621
0.00107253
0.000918539
0.000808109
0.000750235
0.000318355
0.000496517
0.0016938
0.00259081
0.00336942
0.00109741
0.000804854
0.00243457
0.00235417
0.00282115
0.00311226
0.00337639
0.00361581
0.00382598
0.00400162
0.0041482
0.00427941
0.00437646
0.00440852
0.00433855
0.00411987
0.00364816
0.0026429
0.000868767
0.000566195
0.000825368
0.00100943
0.00127256
0.00161346
0.00196741
0.00215249
0.00187449
0.00136807
0.000963916
0.000776
0.000672617
0.000453067
0.000631506
0.00194956
0.00320194
0.00463051
0.00132956
0.00093498
0.00290762
0.00263032
0.00338976
0.00366307
0.00383498
0.00396822
0.00408339
0.00419104
0.00430137
0.00443444
0.00458263
0.00473124
0.00486223
0.00494034
0.00486478
0.00442482
0.00326474
0.000849792
0.00203034
0.00232348
0.00227039
0.00224719
0.00231364
0.00247876
0.00265886
0.00268863
0.00250925
0.00204113
0.00141737
0.00125166
0.000610532
0.000745476
0.00236078
0.0038691
0.00573213
0.00153804
0.00105318
0.00329851
0.00266167
0.00363289
0.00387034
0.0039284
0.0039486
0.00397068
0.00401317
0.00408816
0.00421285
0.00438189
0.00458269
0.00479731
0.00499748
0.00512574
0.00511173
0.00487611
0.00425727
0.00419303
0.00410043
0.00383005
0.00352985
0.0033081
0.00320114
0.00318583
0.00317296
0.00306704
0.0027893
0.00235296
0.00205236
0.000680666
0.000826392
0.00248985
0.00418288
0.00647826
0.0017179
0.00116339
0.00366914
0.00260755
0.00365594
0.00387652
0.00383627
0.00376405
0.0037159
0.00371526
0.00377471
0.00390364
0.00409378
0.00432695
0.00457741
0.00481856
0.00501132
0.00513187
0.00517318
0.00509428
0.00500342
0.00488462
0.00468794
0.00439898
0.00410907
0.00387472
0.0037162
0.00360881
0.00349872
0.00333439
0.00310014
0.00270784
0.00230253
0.000704962
0.000671497
0.000681302
0.00160369
0.00239746
0.00410125
0.00683337
0.00188099
0.00126863
0.00402743
0.00255916
0.00353317
0.00377375
0.00366466
0.00352633
0.00343257
0.00341143
0.00347614
0.00362853
0.00385155
0.00411812
0.00439153
0.00464673
0.00484576
0.00497538
0.00505399
0.0050828
0.00506623
0.00501836
0.00492171
0.00475511
0.0045345
0.00430848
0.00411188
0.00395534
0.00382731
0.00371209
0.00360984
0.00346213
0.00303074
0.00251571
0.00255358
0.00262624
0.00238904
0.00248049
0.00416943
0.00718265
0.00193234
0.00138115
0.0043178
0.00256821
0.00331321
0.00362101
0.00347826
0.0032944
0.00316878
0.00313949
0.00322652
0.0034242
0.00369105
0.00399425
0.0042856
0.00454405
0.00472101
0.00482623
0.00487686
0.00489016
0.00487991
0.00485871
0.0048204
0.00474856
0.00462724
0.00447263
0.00431188
0.0041655
0.00404309
0.00394937
0.0038936
0.00386961
0.0037689
0.00348058
0.00305525
0.00270257
0.00234607
0.00243337
0.00443122
0.00678931
0.00194471
0.00156704
0.00448615
0.00262431
0.00298627
0.00344614
0.00332181
0.00310813
0.00294993
0.00291023
0.00304115
0.00330754
0.00362031
0.00395628
0.00425607
0.00449887
0.0046593
0.00473349
0.00473986
0.00470682
0.00466152
0.00462298
0.00459409
0.00456413
0.00451676
0.00443993
0.00434401
0.00424436
0.00415491
0.00408706
0.0040514
0.00405086
0.00405299
0.00397358
0.00372325
0.00316853
0.00227946
0.0025372
0.00474243
0.00743401
0.00206262
0.001937
0.00583023
0.00278931
0.00237812
0.00317069
0.00320406
0.00300227
0.00281296
0.00273109
0.00295583
0.00329761
0.00364354
0.00398119
0.00428585
0.00452133
0.00465948
0.00469628
0.00465438
0.00457076
0.00448159
0.00441173
0.00436988
0.00435063
0.00434142
0.00432319
0.00429088
0.00424934
0.00420793
0.00417669
0.00416449
0.00417524
0.00419792
0.00418963
0.0040248
0.00336697
0.0022413
0.00259082
0.00502025
0.00816041
0.00221847
0.00228314
0.0083472
0.00415714
0.00207499
0.00257645
0.00292614
0.00286169
0.0026946
0.00265611
0.00300897
0.00338549
0.00374457
0.00408585
0.0043865
0.00460582
0.00471206
0.00470323
0.00460966
0.00447793
0.00435126
0.00425716
0.00420531
0.00419169
0.00420491
0.00422892
0.00424974
0.00426314
0.00427137
0.00427945
0.00429254
0.0043132
0.00433561
0.00432701
0.00415079
0.00339657
0.00221172
0.00272515
0.00540669
0.00893818
0.00234002
0.0026465
0.0105914
0.00664006
0.00315558
0.00222705
0.00224462
0.00240427
0.00252905
0.00285906
0.00325095
0.00360367
0.00394213
0.00427033
0.00455519
0.00474554
0.00480573
0.00473935
0.00458936
0.00441407
0.00426213
0.00415966
0.0041129
0.00411612
0.00415786
0.00422083
0.00428678
0.00434552
0.00439279
0.00442804
0.00445251
0.00446714
0.00446747
0.00442297
0.00419097
0.0033619
0.00225073
0.00298819
0.00588856
0.00962572
0.00244877
0.00297774
0.0116033
0.00894709
0.00548667
0.00375471
0.00303117
0.00296453
0.00321382
0.00344883
0.00367742
0.00393214
0.00422517
0.0045296
0.00478666
0.00492974
0.00492285
0.00478241
0.00457072
0.00435801
0.00419402
0.00409823
0.00407013
0.00410047
0.00417736
0.00428192
0.00438433
0.00447041
0.00453229
0.0045668
0.00457431
0.00455655
0.00451149
0.00441352
0.00413409
0.00332446
0.00242279
0.00339845
0.00643486
0.0101756
0.00254762
0.00303635
0.00994345
0.00860008
0.00719967
0.00586627
0.00490674
0.00446738
0.00420689
0.00408269
0.00412259
0.00430407
0.00457382
0.00485811
0.00507083
0.00513572
0.00502956
0.00479357
0.00451565
0.00427319
0.00411179
0.00403974
0.00404434
0.00410699
0.00421181
0.00434621
0.00446794
0.00455215
0.0045972
0.00460254
0.00457172
0.00450921
0.0044161
0.00427613
0.00399984
0.00335943
0.00282393
0.00401599
0.00707773
0.0106031
0.00264827
0.00291875
0.00348083
0.00413704
0.00440081
0.00444498
0.0043324
0.00421319
0.00415331
0.00421883
0.0044129
0.00469755
0.00500608
0.0052615
0.00538281
0.0053089
0.00505563
0.00469992
0.00436054
0.00411576
0.00399722
0.003986
0.0040425
0.0041388
0.00425716
0.00438603
0.00451804
0.0045836
0.00460195
0.00457478
0.00451202
0.00442058
0.0043039
0.00415921
0.00395705
0.00362998
0.00357356
0.0049085
0.00785689
0.0109965
0.00273412
0.0042734
0.00540922
0.00500824
0.00483647
0.00480158
0.00487503
0.00503127
0.00526838
0.00550525
0.00567911
0.00574028
0.00562957
0.00531118
0.00486442
0.00439579
0.00407508
0.00392727
0.00390503
0.00396039
0.00405748
0.00417466
0.00429747
0.00441479
0.00451621
0.00458781
0.00461824
0.00459369
0.00453954
0.00446539
0.00437763
0.00429143
0.00423665
0.00427203
0.00466619
0.00602491
0.00867575
0.0112739
0.00278187
0.00242179
0.00434868
0.00463569
0.00479455
0.00503365
0.00545337
0.00591207
0.00617939
0.00621657
0.00610124
0.00585427
0.00544993
0.00488057
0.00436368
0.00401031
0.00384066
0.00379926
0.00383353
0.003911
0.00401193
0.00412344
0.00423577
0.00434116
0.00443343
0.00450715
0.00456031
0.0045945
0.00461944
0.00464623
0.00467887
0.00474387
0.00488761
0.00519358
0.00584087
0.00713485
0.00940671
0.0113249
0.00282551
0.00291362
0.00597065
0.00420203
0.00398502
0.00465658
0.00511696
0.00562646
0.00626125
0.00668749
0.0064458
0.00600943
0.0055826
0.00515292
0.00469588
0.00425954
0.00395055
0.00378379
0.00372131
0.00371923
0.00375036
0.00380026
0.00386102
0.003928
0.0039985
0.00407154
0.00414795
0.00423031
0.00432308
0.00443311
0.00456932
0.00474152
0.00495911
0.0052397
0.00560813
0.00613061
0.00692516
0.00817903
0.0103186
0.0115399
0.00291962
0.00291629
0.00590102
0.00433291
0.00448324
0.00510617
0.00546272
0.00577573
0.00600297
0.00589727
0.00515339
0.00453097
0.00411975
0.00381493
0.00356137
0.00336034
0.00323148
0.00317079
0.00315874
0.00317658
0.00321146
0.0032556
0.00330476
0.00335731
0.0034139
0.00347732
0.00355236
0.00364532
0.00376366
0.00391544
0.00410867
0.0043512
0.00465207
0.00502475
0.00549004
0.00607186
0.00677163
0.0076244
0.00911087
0.0106686
0.00287813
0.0019981
0.00195563
0.00179141
0.00169166
0.0015905
0.00151515
0.00144593
0.00134597
0.00119635
0.00110037
0.00103798
0.00100351
0.000985637
0.000978757
0.000980816
0.000990489
0.00100608
0.00102604
0.0010494
0.00107572
0.00110497
0.00113739
0.00117341
0.00121359
0.00125854
0.00130895
0.00136548
0.00142886
0.00149988
0.00157947
0.00166881
0.00176943
0.00188336
0.00201327
0.00216256
0.0023351
0.00253429
0.00275987
0.00299807
0.00266125
)
;

boundaryField
{
    floor
    {
        type            compressible::alphatWallFunction;
        Prt             0.85;
        value           nonuniform List<scalar> 
42
(
0.000103696
3.66318e-05
4.32498e-05
4.37899e-05
4.32119e-05
4.18505e-05
4.13622e-05
4.1674e-05
4.22974e-05
4.35308e-05
4.61685e-05
4.67344e-05
4.34805e-05
3.66798e-05
6.74585e-05
9.33463e-05
0.000124189
0.000139381
0.000117208
3.66792e-05
6.74577e-05
4.07265e-05
6.87752e-05
6.20717e-05
8.91503e-05
8.60202e-05
0.000105934
9.64281e-05
0.000100005
9.5077e-05
0.000117661
9.65236e-05
0.000103695
0.000112467
0.000102263
9.53697e-05
3.66313e-05
9.53686e-05
4.748e-05
0.000123752
7.93647e-05
0.000121031
)
;
    }
    ceiling
    {
        type            compressible::alphatWallFunction;
        Prt             0.85;
        value           nonuniform List<scalar> 
43
(
0.000276976
0.000271407
0.000249858
0.000236665
0.000223201
0.00021311
0.00020379
0.000190237
0.00016973
0.00015644
0.000147727
0.000142886
0.000140367
0.000139396
0.000139687
0.000141051
0.000143246
0.000146052
0.000149327
0.000153008
0.000157087
0.000161592
0.000166581
0.000172125
0.000178304
0.000185202
0.000192904
0.000201497
0.000211075
0.00022175
0.00023366
0.00024699
0.000261983
0.000278956
0.000298315
0.000320511
0.00034592
0.000374442
0.000404298
0.000362029
0.000394408
0.000464089
0.000331517
)
;
    }
    sWall
    {
        type            compressible::alphatWallFunction;
        Prt             0.85;
        value           nonuniform List<scalar> 9(0.000267404 0.000312214 0.000358482 0.000400081 0.000407395 0.000392726 0.000392058 0.00039238 0.000275373);
    }
    nWall
    {
        type            compressible::alphatWallFunction;
        Prt             0.85;
        value           nonuniform List<scalar> 
18
(
0.000116695
0.000155475
0.000187433
0.0002156
0.00023956
0.000261042
0.000267765
0.000304891
0.0003205
0.000334395
0.000346983
0.000359745
0.000370551
0.00037655
0.000382045
0.000393871
0.000388684
0.000361394
)
;
    }
    sideWalls
    {
        type            empty;
    }
    glass1
    {
        type            compressible::alphatWallFunction;
        Prt             0.85;
        value           nonuniform List<scalar> 9(6.58252e-05 9.27698e-05 0.00011433 0.000132938 0.000149578 0.000164899 0.000179377 0.000194705 0.000219728);
    }
    glass2
    {
        type            compressible::alphatWallFunction;
        Prt             0.85;
        value           nonuniform List<scalar> 2(0.000269591 0.000284942);
    }
    sun
    {
        type            compressible::alphatWallFunction;
        Prt             0.85;
        value           nonuniform List<scalar> 
14
(
6.59815e-05
7.41426e-05
7.63228e-05
8.0943e-05
8.50593e-05
8.87117e-05
9.20354e-05
9.51714e-05
9.82869e-05
0.000101165
0.00010327
0.00010443
0.000104631
0.000104246
)
;
    }
    inlet
    {
        type            fixedValue;
        value           uniform 1.94e-05;
    }
    outlet
    {
        type            zeroGradient;
    }
}


// ************************************************************************* //
