/*--------------------------------*- C++ -*----------------------------------*\
  =========                 |
  \\      /  F ield         | OpenFOAM: The Open Source CFD Toolbox
   \\    /   O peration     | Website:  https://openfoam.org
    \\  /    A nd           | Version:  6
     \\/     M anipulation  |
\*---------------------------------------------------------------------------*/
FoamFile
{
    version     2.0;
    format      ascii;
    class       volScalarField;
    location    "450";
    object      k;
}
// * * * * * * * * * * * * * * * * * * * * * * * * * * * * * * * * * * * * * //

dimensions      [0 2 -2 0 0 0 0];

internalField   nonuniform List<scalar> 
775
(
0.000330416
0.000408201
0.000430568
0.000480192
0.000526981
0.000570552
0.0006119
0.000652406
0.000694094
0.000733898
0.000763795
0.000780561
0.000783481
0.000777888
0.000769932
0.000124053
0.000160853
0.000164098
0.000160627
0.000152619
0.000149803
0.000151598
0.000155223
0.000162539
0.000178826
0.000182436
0.000162241
0.000124306
0.000343584
0.000628217
0.00109706
0.00138259
0.000978462
0.00062388
0.00114115
0.000722292
0.000766204
0.000824549
0.000889318
0.000960553
0.00103844
0.00112073
0.00120288
0.00127406
0.00131803
0.00131424
0.00124404
0.00109782
0.000902356
0.000749422
0.000655042
0.00018726
0.000518158
0.000411255
0.000405821
0.000368961
0.000334733
0.000314925
0.000302062
0.000300271
0.000311816
0.000316188
0.000324897
0.0001462
0.000355789
0.00104168
0.00203754
0.00373674
0.00173904
0.000935859
0.00196417
0.000955142
0.000959768
0.00100559
0.00106745
0.00114286
0.00123213
0.00133267
0.0014393
0.00154368
0.00163086
0.00168539
0.00170351
0.00169789
0.00164129
0.0013986
0.00109026
0.000462631
0.000474945
0.000453354
0.000454767
0.000472253
0.000491995
0.000495676
0.000460633
0.00040297
0.000358992
0.000357926
0.00037166
0.000296154
0.000575586
0.00136048
0.00290117
0.00638325
0.00255302
0.00126304
0.00285439
0.00114519
0.00108161
0.00110502
0.00115647
0.00122614
0.00131377
0.00141743
0.00153296
0.00165316
0.00176301
0.00184728
0.00189895
0.00191688
0.00187705
0.00174081
0.00163415
0.00104313
0.00115702
0.000930965
0.000754598
0.000646824
0.000589666
0.000571692
0.000578985
0.000595417
0.000607889
0.000592351
0.000581341
0.00073346
0.00053793
0.000802149
0.00177645
0.00408053
0.00939747
0.003417
0.00160272
0.00381112
0.00132118
0.00115157
0.00114507
0.00118398
0.00124596
0.00133004
0.00143575
0.00156019
0.0016951
0.00182291
0.00192636
0.00199471
0.00202143
0.00199067
0.00189448
0.00180437
0.00169711
0.00146306
0.00128437
0.00109579
0.000925916
0.000797406
0.000713118
0.00066664
0.000645201
0.000634154
0.000618673
0.000610589
0.000795195
0.000668656
0.000985782
0.00194942
0.00490542
0.0120268
0.00426354
0.00195586
0.00484547
0.00150787
0.00118553
0.00114278
0.00116966
0.00122588
0.00130973
0.00142299
0.00156445
0.00172152
0.00186973
0.00198809
0.00206264
0.00208638
0.00205168
0.00196311
0.00186266
0.00174774
0.00159393
0.0014468
0.001294
0.00113169
0.000984085
0.000864027
0.000775149
0.000713026
0.000668031
0.000630191
0.000603947
0.000644369
0.00100878
0.000717337
0.000650839
0.000669975
0.00125079
0.00183049
0.00511162
0.0137884
0.0051119
0.00232591
0.00592258
0.00172434
0.00119457
0.00111076
0.00112665
0.00118012
0.00126939
0.00140009
0.00157351
0.0017664
0.00194113
0.00207411
0.00214967
0.00216284
0.00211026
0.00200882
0.00188963
0.00176087
0.00162281
0.00149011
0.00135964
0.00122559
0.00109133
0.000968548
0.000864604
0.000781249
0.000715463
0.000663034
0.000626052
0.000620958
0.000671232
0.000776557
0.0011341
0.00143458
0.00120707
0.00188626
0.00563268
0.0160646
0.00539565
0.00275699
0.00686821
0.00198782
0.00118799
0.00106108
0.00106537
0.00111666
0.00121566
0.00137664
0.00160665
0.00185222
0.00205725
0.00220256
0.00227309
0.00226695
0.00218957
0.00206227
0.00191004
0.0017519
0.00159997
0.00146324
0.00134067
0.00122673
0.00111467
0.00100703
0.000909094
0.000824377
0.000753808
0.000697081
0.000655797
0.000635381
0.00063875
0.000655283
0.000706362
0.000781757
0.000954423
0.00201327
0.00665742
0.0151746
0.00546549
0.00354929
0.00781102
0.00239698
0.00118674
0.00100943
0.000997519
0.00104243
0.00115251
0.00136549
0.0016937
0.0020039
0.00223426
0.00238285
0.0024373
0.00240541
0.00229599
0.00212954
0.00193513
0.00173927
0.00156027
0.00140729
0.00128019
0.00117318
0.00107868
0.000990113
0.000907908
0.000833882
0.000769628
0.000716162
0.000674593
0.000646213
0.000629788
0.000619042
0.000616306
0.000643846
0.000836233
0.00201681
0.00646729
0.0161358
0.00614895
0.0054262
0.0153181
0.0039071
0.00129693
0.000981616
0.000941406
0.000973572
0.00109922
0.00142402
0.0018913
0.00225292
0.00248876
0.00261885
0.00264917
0.00258081
0.00242503
0.0022078
0.00196437
0.00172726
0.00151809
0.00134585
0.00120954
0.00110259
0.00101728
0.000944055
0.000878566
0.000819474
0.000766971
0.000721682
0.000684238
0.000654936
0.000632902
0.000616219
0.000607656
0.000630465
0.000834075
0.00214174
0.00711505
0.0187083
0.00711416
0.0075422
0.0284969
0.00827983
0.00193535
0.00106186
0.000948016
0.000971091
0.0011638
0.00172111
0.00225544
0.00262265
0.00283899
0.00293281
0.00291507
0.00278916
0.00256983
0.00228959
0.00199136
0.00171303
0.00147727
0.00129054
0.00114831
0.00104139
0.00096081
0.000898519
0.000847065
0.000802394
0.000762732
0.000727525
0.000696733
0.000670419
0.000648517
0.000631469
0.000623819
0.0006507
0.000888255
0.00242609
0.00822414
0.0220658
0.0079159
0.0101374
0.0395217
0.0155741
0.00428666
0.00179487
0.00131666
0.00129305
0.00169188
0.00240241
0.00290305
0.0031868
0.00331729
0.00332963
0.00323042
0.00302039
0.00271749
0.00236225
0.00200663
0.00169272
0.00144101
0.00125171
0.0011136
0.00101292
0.00093845
0.000884308
0.000843522
0.000810583
0.000782058
0.000756044
0.000731678
0.000708809
0.000687893
0.000670679
0.000663739
0.00069948
0.00100067
0.00283923
0.00947816
0.0250729
0.00866975
0.0128373
0.0431208
0.0228633
0.0100718
0.00542123
0.00356935
0.00302477
0.0034055
0.00374883
0.00391549
0.00395955
0.00391914
0.00379619
0.00357582
0.00325091
0.00284412
0.00240641
0.00199981
0.00166677
0.00141956
0.0012471
0.00112846
0.00104463
0.000982405
0.000934878
0.000901408
0.000876629
0.000855908
0.000836082
0.000815489
0.000793782
0.00077181
0.000752515
0.000745785
0.000797478
0.00119928
0.00339
0.0107443
0.0273504
0.00938572
0.0133522
0.0388953
0.0264019
0.0184771
0.012788
0.00910676
0.00719649
0.00620864
0.00557958
0.005164
0.00486099
0.00458823
0.00428202
0.00390047
0.00343165
0.00290948
0.0023974
0.00196617
0.00164796
0.0014367
0.00130546
0.00122293
0.00116746
0.00112566
0.00108869
0.00105912
0.00103919
0.00102292
0.00100596
0.000985908
0.000962391
0.000936936
0.000914658
0.000912307
0.00100227
0.00157364
0.00416933
0.0121099
0.0289129
0.0101437
0.0123444
0.0175488
0.0172579
0.0151106
0.0128005
0.0106572
0.00901415
0.00775679
0.00685064
0.00619296
0.00566685
0.00517577
0.00466139
0.004095
0.0034767
0.00286177
0.0023198
0.00192394
0.00167234
0.0015307
0.00146028
0.00142387
0.00140472
0.00139315
0.00138233
0.00136089
0.00134764
0.00133666
0.00132358
0.00130492
0.00128062
0.0012541
0.0012361
0.00125825
0.00144092
0.00228404
0.00533496
0.0137908
0.0303484
0.0108112
0.0124967
0.0166277
0.0129852
0.0108339
0.00939471
0.00834669
0.00749267
0.00676515
0.00606896
0.00537433
0.0046845
0.00399381
0.00330176
0.00269346
0.00221509
0.00194509
0.00180852
0.00174741
0.00172981
0.00173629
0.00175675
0.00178449
0.00181422
0.00184061
0.00185187
0.00185847
0.00186512
0.00186421
0.00185614
0.00185063
0.00187155
0.00197679
0.00234625
0.00354368
0.00702387
0.0157953
0.0317362
0.0111926
0.00843859
0.0111306
0.00986786
0.00877407
0.00800077
0.00750632
0.00710472
0.00649991
0.0057424
0.00499405
0.00430882
0.00366195
0.00302445
0.00257877
0.00230226
0.00216181
0.00210259
0.00209095
0.00210987
0.0021503
0.002207
0.002276
0.00235396
0.00243785
0.00252352
0.00260521
0.00267672
0.00274391
0.00281158
0.00290579
0.00306735
0.00339063
0.00409355
0.00567582
0.00934051
0.0179414
0.0322723
0.0115487
0.0122889
0.0314622
0.0157741
0.00981573
0.0080226
0.00725833
0.00694236
0.00678831
0.00647377
0.00570326
0.00493471
0.00434966
0.00388039
0.00345332
0.00308167
0.00283077
0.00269016
0.00262607
0.00260728
0.00261743
0.0026493
0.00270014
0.00276946
0.00285797
0.00296723
0.00309946
0.00325716
0.00344253
0.00365813
0.00390718
0.00419532
0.00453249
0.00496955
0.00562341
0.00670343
0.00859059
0.0122078
0.0203074
0.0320124
0.012334
0.0123054
0.0259634
0.0118715
0.0086643
0.00746649
0.00685485
0.00658205
0.00637236
0.00603239
0.0050491
0.00425724
0.0037832
0.00347401
0.0032377
0.00305602
0.00293997
0.00288759
0.00288512
0.00291859
0.00297824
0.00305855
0.00315735
0.00327514
0.00341475
0.00358133
0.00378216
0.00402647
0.00432546
0.00469244
0.0051431
0.00569656
0.00637842
0.00722792
0.00831363
0.00977383
0.0118151
0.0147904
0.0204239
0.0305443
0.0119881
0.00577817
0.00552353
0.00463449
0.00413311
0.00365449
0.00331727
0.00302181
0.00261899
0.0020693
0.00175102
0.00155827
0.00145656
0.00140515
0.0013856
0.00139143
0.001419
0.001464
0.00152266
0.00159278
0.00167369
0.00176596
0.00187112
0.00199152
0.00213025
0.00229103
0.00247825
0.00269701
0.00295328
0.00325426
0.00360892
0.00402883
0.00452941
0.00513159
0.00586403
0.00676601
0.00788885
0.0092924
0.0110207
0.013006
0.0102515
)
;

boundaryField
{
    floor
    {
        type            kqRWallFunction;
        value           nonuniform List<scalar> 
42
(
0.000769932
0.000124053
0.000160853
0.000164098
0.000160627
0.000152619
0.000149803
0.000151598
0.000155223
0.000162539
0.000178826
0.000182436
0.000162241
0.000124306
0.000343584
0.000628217
0.00109706
0.00138259
0.000978462
0.000124306
0.000343584
0.0001462
0.000355789
0.000296154
0.000575586
0.00053793
0.000802149
0.000668656
0.000717337
0.000650839
0.000985782
0.000669975
0.000769932
0.000902356
0.000749422
0.000655042
0.000124053
0.000655042
0.00018726
0.00109026
0.000462631
0.00104313
)
;
    }
    ceiling
    {
        type            kqRWallFunction;
        value           nonuniform List<scalar> 
43
(
0.00577817
0.00552353
0.00463449
0.00413311
0.00365449
0.00331727
0.00302181
0.00261899
0.0020693
0.00175102
0.00155827
0.00145656
0.00140515
0.0013856
0.00139143
0.001419
0.001464
0.00152266
0.00159278
0.00167369
0.00176596
0.00187112
0.00199152
0.00213025
0.00229103
0.00247825
0.00269701
0.00295328
0.00325426
0.00360892
0.00402883
0.00452941
0.00513159
0.00586403
0.00676601
0.00788885
0.0092924
0.0110207
0.013006
0.0102515
0.0123444
0.0175488
0.00843859
)
;
    }
    sWall
    {
        type            kqRWallFunction;
        value           nonuniform List<scalar> 9(0.0054262 0.0075422 0.0101374 0.0128373 0.0133522 0.0123444 0.0122889 0.0123054 0.00577817);
    }
    nWall
    {
        type            kqRWallFunction;
        value           nonuniform List<scalar> 
18
(
0.000978462
0.00173904
0.00255302
0.003417
0.00426354
0.0051119
0.00539565
0.00711416
0.0079159
0.00866975
0.00938572
0.0101437
0.0108112
0.0111926
0.0115487
0.012334
0.0119881
0.0102515
)
;
    }
    sideWalls
    {
        type            empty;
    }
    glass1
    {
        type            kqRWallFunction;
        value           nonuniform List<scalar> 9(0.000330416 0.00062388 0.000935859 0.00126304 0.00160272 0.00195586 0.00232591 0.00275699 0.00354929);
    }
    glass2
    {
        type            kqRWallFunction;
        value           nonuniform List<scalar> 2(0.00546549 0.00614895);
    }
    sun
    {
        type            kqRWallFunction;
        value           nonuniform List<scalar> 
14
(
0.000330416
0.000408201
0.000430568
0.000480192
0.000526981
0.000570552
0.0006119
0.000652406
0.000694094
0.000733898
0.000763795
0.000780561
0.000783481
0.000777888
)
;
    }
    inlet
    {
        type            fixedValue;
        value           uniform 0.00735;
    }
    outlet
    {
        type            zeroGradient;
    }
}


// ************************************************************************* //
