/*--------------------------------*- C++ -*----------------------------------*\
  =========                 |
  \\      /  F ield         | OpenFOAM: The Open Source CFD Toolbox
   \\    /   O peration     | Website:  https://openfoam.org
    \\  /    A nd           | Version:  6
     \\/     M anipulation  |
\*---------------------------------------------------------------------------*/
FoamFile
{
    version     2.0;
    format      ascii;
    class       volScalarField;
    location    "450";
    object      nut;
}
// * * * * * * * * * * * * * * * * * * * * * * * * * * * * * * * * * * * * * //

dimensions      [0 2 -1 0 0 0 0];

internalField   nonuniform List<scalar> 
458
(
0.00114083
0.00124613
0.0012795
0.00134373
0.00140435
0.00146406
0.00152748
0.0015844
0.00162731
0.00164695
0.00163375
0.00157393
0.0013913
0.00117773
0.000995074
0.000524181
0.000615002
0.000696901
0.000725934
0.00071375
0.000669293
0.000620633
0.000576948
0.00053888
0.000505636
0.000476465
0.000450885
0.000428043
0.000407092
0.000387096
0.000366886
0.000354153
0.000325358
0.00152132
0.00348398
0.00324404
0.0037244
0.00421057
0.00468647
0.00504442
0.00540502
0.0057638
0.00607744
0.00630356
0.00639667
0.00623445
0.00556448
0.00360059
0.0012395
0.00107253
0.000900212
0.000516239
0.00130996
0.00193591
0.00240293
0.00250756
0.00178663
0.00150039
0.00131153
0.00117392
0.00106907
0.000985961
0.000911873
0.000841586
0.000770288
0.000705914
0.000651574
0.000791306
0.00042227
0.00183454
0.00464104
0.00386219
0.00459316
0.00488138
0.0050863
0.00525902
0.00549829
0.00581601
0.00620058
0.00662407
0.00701492
0.0072098
0.00690893
0.00597615
0.00442798
0.00322474
0.0010072
0.000745965
0.00143433
0.0021757
0.0028726
0.00298619
0.000883768
0.000771958
0.0006795
0.000605107
0.000545442
0.000497362
0.000458639
0.000427657
0.000404163
0.000452258
0.000529385
0.000931
0.000496999
0.00213225
0.00583203
0.00373854
0.00464289
0.00470101
0.0046563
0.0047067
0.00488759
0.00519261
0.00563146
0.00618153
0.00672221
0.00705027
0.00698876
0.00657817
0.00576007
0.00453976
0.00234529
0.00110885
0.00161806
0.00238456
0.00326126
0.00393664
0.00385111
0.000986514
0.000903374
0.000846806
0.000804349
0.000767367
0.000731141
0.000696255
0.000659187
0.000615773
0.000574899
0.00057639
0.00112031
0.000566459
0.00243334
0.00742846
0.00384223
0.00439948
0.00443971
0.00426275
0.00429406
0.0044892
0.00480393
0.00527756
0.00588897
0.00644664
0.00672834
0.00670883
0.00649666
0.00610726
0.00537433
0.00414463
0.00389634
0.00428348
0.00482634
0.00530281
0.0055365
0.00540309
0.00452435
0.00408653
0.0038452
0.00366873
0.00348717
0.00323417
0.00286086
0.00240186
0.00189747
0.00142459
0.00106558
0.00106681
0.000948324
0.000757216
0.000794023
0.000857789
0.00275439
0.00923549
0.00506758
0.00411258
0.00431263
0.00420674
0.00417929
0.00438698
0.00470159
0.0051853
0.00579247
0.00632703
0.00655085
0.00646928
0.00631208
0.00621752
0.00607245
0.00579407
0.00602265
0.00649522
0.0067773
0.00680461
0.00660111
0.00622128
0.0057256
0.00534021
0.00505236
0.00480459
0.00456287
0.00430432
0.0039516
0.00348359
0.00290887
0.00228314
0.00173233
0.00126365
0.00109136
0.00099558
0.00125911
0.000891222
0.00307242
0.0105902
0.00741323
0.0048202
0.00430408
0.0044148
0.00441085
0.00451178
0.00478059
0.00525292
0.00586346
0.00638764
0.00655063
0.00641459
0.00639009
0.00669238
0.00699407
0.0072108
0.00757173
0.00778605
0.0076815
0.00731658
0.00678525
0.00618509
0.00562207
0.00519615
0.00488795
0.00463978
0.00442176
0.00422881
0.00405533
0.00378149
0.00335627
0.00281664
0.00228902
0.00180567
0.0015282
0.00145035
0.00140537
0.00106705
0.00315324
0.00979463
0.00818788
0.00665394
0.00569399
0.00524378
0.00483723
0.0047465
0.00497296
0.00545681
0.00608498
0.00659333
0.00667695
0.00656809
0.00695023
0.0074381
0.00771118
0.00790828
0.00803525
0.00789274
0.00744044
0.00678134
0.00604401
0.00535379
0.00481185
0.00444157
0.00418658
0.0039958
0.00385303
0.00376183
0.00372982
0.00373003
0.00355411
0.00321708
0.00291941
0.00278762
0.00293557
0.00323052
0.00400039
0.00164719
0.00309438
0.00374142
0.00419522
0.00436894
0.00433408
0.00429182
0.00440123
0.00471695
0.00518101
0.00578446
0.00644574
0.00689487
0.0068533
0.00697824
0.00730942
0.00748769
0.0075432
0.0075232
0.00733452
0.00688701
0.00621946
0.0054731
0.00478985
0.00425662
0.00388079
0.00361435
0.00340517
0.00322626
0.00306977
0.00293314
0.00281179
0.00269748
0.00260421
0.00253217
0.00249838
0.00249121
0.00244755
0.00232287
0.00216043
0.00151498
0.00155496
0.00264591
0.0035604
0.00431834
0.00501119
0.00554902
0.00593437
0.00639437
0.00683815
0.0071719
0.00706612
0.00696458
0.00677975
0.00658241
0.0064084
0.00618286
0.00582598
0.00533406
0.00478204
0.00428423
0.003893
0.0036025
0.00337849
0.00318767
0.00301144
0.00284683
0.00270105
0.00258602
0.00251435
0.00248794
0.00248507
0.00249337
0.00249658
0.00246005
0.00233632
0.00211171
0.00182301
0.00121835
0.00216357
0.0043258
0.00547692
0.00624025
0.00654528
0.00611942
0.00578702
0.00588974
0.00577604
0.00574912
0.00565126
0.00545018
0.00524426
0.00508372
0.00492813
0.00472656
0.00445687
0.00413725
0.00382366
0.00356033
0.00334981
0.00317913
0.00303523
0.00291069
0.00280418
0.00271729
0.00265044
0.00259936
0.00257992
0.00259575
0.00263935
0.00269796
0.00275135
0.00278079
0.00274877
0.00270501
0.0023368
0.0012345
0.00226071
0.00230732
0.00235308
0.00263323
0.00239343
0.00199101
0.00160864
0.00143726
0.00130807
0.00122634
0.00117191
0.00111789
0.00107225
0.00103978
0.00101729
0.000998235
0.000977787
0.000953641
0.000927238
0.000903569
0.000885182
0.000871778
0.000863448
0.000859932
0.000861156
0.000867333
0.00087889
0.000896437
0.000920899
0.000953886
0.000994392
0.00104242
0.00109787
0.00116072
0.00123055
0.00131782
0.00135381
0.00132603
0.00123472
0.0011404
)
;

boundaryField
{
    floor
    {
        type            nutkWallFunction;
        Cmu             0.09;
        kappa           0.41;
        E               9.8;
        value           nonuniform List<scalar> 
36
(
0.00012013
6.2806e-05
7.42269e-05
8.435e-05
8.79035e-05
8.64143e-05
8.09544e-05
7.49278e-05
6.94684e-05
6.46699e-05
6.0445e-05
5.67094e-05
5.34101e-05
5.0444e-05
4.77059e-05
4.50756e-05
4.23995e-05
4.07037e-05
3.68387e-05
3.68386e-05
4.96904e-05
5.93407e-05
6.81491e-05
9.17128e-05
9.61723e-05
0.000103842
0.00012013
0.000148522
0.000129206
0.000108904
6.2806e-05
0.000108904
6.1796e-05
0.000121557
9.03451e-05
0.000133435
)
;
    }
    ceiling
    {
        type            nutkWallFunction;
        Cmu             0.09;
        kappa           0.41;
        E               9.8;
        value           nonuniform List<scalar> 
43
(
0.000261368
0.000266365
0.000271263
0.000301133
0.000275708
0.000232354
0.000190251
0.000171034
0.000156376
0.000147019
0.000140748
0.000134492
0.000129178
0.000125383
0.000122746
0.000120507
0.000118098
0.000115247
0.000112119
0.000109306
0.000107115
0.000105515
0.000104518
0.000104098
0.000104244
0.000104983
0.000106364
0.000108457
0.000111366
0.000115276
0.000120055
0.000125693
0.000132165
0.000139457
0.000147506
0.000157494
0.000161591
0.00015843
0.000147986
0.000137105
0.000349846
0.00041652
0.000250829
)
;
    }
    sWall
    {
        type            nutkWallFunction;
        Cmu             0.09;
        kappa           0.41;
        E               9.8;
        value           uniform 0.00026144;
    }
    nWall
    {
        type            nutkWallFunction;
        Cmu             0.09;
        kappa           0.41;
        E               9.8;
        value           nonuniform List<scalar> 6(0.000103844 0.000107838 0.000128577 0.000146117 0.000147972 0.000137115);
    }
    sideWalls
    {
        type            empty;
    }
    glass1
    {
        type            nutkWallFunction;
        Cmu             0.09;
        kappa           0.41;
        E               9.8;
        value           nonuniform List<scalar> 9(0.000137286 0.000180751 0.00021561 0.000248143 0.000280552 0.000314646 0.000348013 0.000356445 0.000350332);
    }
    glass2
    {
        type            nutkWallFunction;
        Cmu             0.09;
        kappa           0.41;
        E               9.8;
        value           nonuniform List<scalar> 2(0.000194675 0.00017989);
    }
    sun
    {
        type            nutkWallFunction;
        Cmu             0.09;
        kappa           0.41;
        E               9.8;
        value           nonuniform List<scalar> 
14
(
0.000137149
0.000149282
0.000153103
0.000160428
0.000167307
0.000174049
0.000181177
0.000187547
0.000192332
0.000194518
0.000193048
0.000186377
0.000165829
0.000141411
)
;
    }
    Table_master
    {
        type            nutkWallFunction;
        Cmu             0.09;
        kappa           0.41;
        E               9.8;
        value           nonuniform List<scalar> 9(0.000106944 9.35025e-05 8.22139e-05 7.29974e-05 6.55064e-05 5.9397e-05 5.44232e-05 5.0406e-05 4.73354e-05);
    }
    Table_slave
    {
        type            nutkWallFunction;
        Cmu             0.09;
        kappa           0.41;
        E               9.8;
        value           nonuniform List<scalar> 9(0.000119122 0.00010928 0.000102524 9.74188e-05 9.29459e-05 8.85396e-05 8.42717e-05 7.97088e-05 7.43253e-05);
    }
    inlet
    {
        type            calculated;
        value           uniform 0.000167705;
    }
    outlet
    {
        type            calculated;
        value           nonuniform List<scalar> 2(0.00226071 0.00230732);
    }
}


// ************************************************************************* //
