/*--------------------------------*- C++ -*----------------------------------*=========                 |
  \      /  F ield         | OpenFOAM: The Open Source CFD Toolbox
   \    /   O peration     | Website:  https://openfoam.org
    \  /    A nd           | Version:  6
     \/     M anipulation  |
\*---------------------------------------------------------------------------*/
FoamFile
{
    version     2.0;
    format      ascii;
    class       volScalarField;
    location    "450";
    object      PPD;
}
// * * * * * * * * * * * * * * * * * * * * * * * * * * * * * * * * * * * * * //

dimensions      [0 0 0 0 0 0 0];

internalField   nonuniform List<scalar> 
458
(
41.59001243015834
29.581578402510402
28.116121159225173
26.866034006136033
26.086931126845656
25.73327604286544
25.854160288273434
26.475120642078863
27.760759823084967
29.932584591680936
33.25696913214358
36.579102218709515
37.36426727887051
37.77128587493786
38.397024515706455
44.537273828795
43.80531348628564
43.62911144986002
43.98170459568004
44.259265373592044
44.46140961860179
44.22977908261992
44.0221688327533
44.0689394928514
44.190313420001296
44.32019838705393
44.51468049656939
44.76744356614382
45.13144181756939
45.72842001652054
46.23956902556483
46.49486164954156
47.26244003802852
38.12868124862565
30.134608668036265
29.57771221892763
28.314158333489573
27.585291516509244
27.230268496302827
27.292693099168133
27.6500994920265
28.293880796342833
29.403825349778742
31.24938000177238
34.18417065765408
37.22102160681249
37.747296723381616
37.854994267713515
35.821860572954634
35.92539135126111
37.11393699706293
42.186996666855286
43.10166970930436
43.10166970930436
43.503370273908246
43.64726079106289
43.633872272714484
43.66163556303471
43.74509009758219
43.80664788040609
43.845493806308774
43.86888086030706
43.93625794178393
44.04442786583849
44.20903863179913
44.68825161559135
45.17071320969771
45.551798846111254
44.73050942694981
39.71396753830922
29.762934859794186
31.099750158033913
30.42061894486197
30.12159622315268
29.94439736140373
29.95208422934894
29.76865141973707
29.12710424297387
28.60118537428366
29.131006127138576
31.42100786748199
35.911565491389695
38.083671588989404
38.421168189362504
38.56614800902475
38.39653794612171
37.6056505387911
37.55694282675173
40.672467906063055
41.145991730017855
41.60640006573588
42.221854626379844
42.446218398507135
43.66139918201267
44.46140961860179
44.48669407187708
44.5119821449202
44.537273828795
44.58786799330667
44.61317045605229
44.663786097763015
44.815718106886465
45.01848996241198
44.6535362422621
40.91356449184921
43.57026523898252
29.489803421165803
32.20562913770287
32.76821170136313
33.597141479615956
34.16173769271296
34.26146691215324
32.99773730324813
30.258429158894884
27.865992197513222
27.390463289772256
29.552368893403084
33.90613516872081
38.4374162358093
39.12374964268924
39.19669301248731
37.65478241656345
36.454927899139165
34.0799517969467
37.3004103485818
39.15127962564698
40.57064247201069
42.19877673482866
44.07599067790111
45.51766735115372
45.25829426604416
44.976065638706075
44.985964674082695
45.069902959698766
45.24925562882151
45.66445180960409
46.40352084925153
47.65939235617517
47.567623103865195
46.750443963157466
43.63657686360187
38.663213909317285
48.59371639653558
29.87042491967138
33.06171073746543
34.91757926352682
37.69956450286121
40.1193747399926
40.51127471674931
36.582125365526736
31.159132360942934
27.181588434674126
26.139204349316913
28.375762731907216
32.78663265162656
37.81085591104219
40.17381823845448
40.24743602043807
39.43066917153908
38.01198595607419
37.976528768484776
38.82916113512499
40.49575085894325
42.64925207215975
44.91963881966758
47.16297276494297
48.77862838061563
49.410917398738825
49.51191546449594
49.54160293103841
49.497723776036565
49.380573605961054
49.28498357095607
49.281053036810135
49.23675281224249
48.37700834812828
46.889062407110956
42.88579790954023
42.84473973485166
42.818803921513165
47.331231886473915
40.9413761567533
53.89350998480635
31.253520274366736
34.56800021749909
36.4943242994672
40.88564195095901
44.79038729483404
46.223126258900656
37.9226715805591
31.031841299945057
26.421387849389603
25.28585513420731
27.71495690278067
32.64248111670352
38.495172966373
41.654563046187825
41.92787729111752
41.80357539294516
41.878142976264755
42.36052173607466
43.50984299399783
45.388093805607
47.26244003802852
48.804393433812024
50.09503318804313
51.052649561066175
51.72655212564217
52.167519872963
52.452966305964864
52.55678397675232
52.504873966705986
52.271309192259
51.90809856003271
51.001640927464415
49.348562908657165
47.32294448510625
43.5096258897723
43.13750385012633
42.799278827524766
44.12935856974697
44.57899146242284
58.91169347298651
35.39351703373393
40.560983474307186
39.50198899675068
42.42251521341833
46.69930477533162
42.716155581190606
36.34967754483516
29.56392925557992
25.15050052988579
24.514711441356468
27.75379568942442
33.84489544531412
41.05580268150314
43.780130120768355
44.3097794133487
44.335041960836335
44.638476493858235
45.62810443533736
47.05751190184334
48.64983395931854
50.14674701548392
51.44135505071818
52.452966305964864
53.153891036481276
53.56937940777417
53.8031122662448
53.906995667402725
53.85505388013908
53.673259542956686
53.30969167528323
52.816366357250246
52.219413129984076
51.28462026986126
48.86047907439373
45.48108389658334
43.92504684926419
42.821644244608734
41.36260566434934
46.958169051112286
66.39068465377528
55.00231628314341
51.861977720921864
45.623900077369306
44.506752030001586
43.837046924855
39.85428996873793
32.61795677207364
25.92294050780039
22.767797120531057
23.829909814336204
29.1366282851196
37.398593606973996
44.43612879401489
46.54595523688743
47.18557212334639
47.39060537424717
47.9552788200709
49.03636923823395
50.4054055719803
51.72655212564217
52.84232731097979
53.72520035481726
54.32252607982436
54.68608584427607
54.841881158570494
54.86784585003685
54.78995070948125
54.66011886348423
54.4264045045263
54.08879207041721
53.59534922921621
53.02406606208519
52.349158364423495
51.59690281191184
50.76776325727664
50.227459794011956
48.74533414520087
44.533352314247665
40.05616634916183
76.61992592043552
69.57183844614144
61.155084055825284
53.4814787551134
48.50920054853006
44.503247667994025
34.07423628784947
24.172980159880495
19.393786322665235
19.69994012567777
24.543785615510842
34.074882045416715
43.855691784519045
47.9809736490265
49.526604523759154
50.17260620991412
50.638319669043646
51.33767660777535
52.32320797700534
53.30969167528323
54.19267482629316
54.86784585003685
55.17747284702728
54.95139415904582
54.652436368529536
54.31939118517204
53.91205336935893
53.43185693479733
52.860808131550485
52.2473552841463
51.51424156112799
50.71260123767627
49.935108056336176
49.03135599229324
47.96627282487735
47.00049013885121
46.378867483501246
46.14382522534434
45.60172889479649
43.963771719009635
60.41974649995216
17.85135338555014
6.130057188365939
5.036477497348372
5.257861052067156
7.021242704714609
11.809429129237586
20.592296964571233
33.49572852889449
44.133045177086586
49.2169041464902
49.93100416936945
50.447694092116365
50.91404441704718
51.53683539293296
52.271676748586245
52.95210384508669
53.46180935211292
53.71605941626645
53.75675134524498
53.61244769289249
53.368403506211756
53.018784010002314
52.60603024094765
52.15502664524645
51.678800544897605
51.20262244519106
50.81396616474912
50.487290040312146
50.25825274649884
50.11042148963257
49.986368177259884
49.85969036608036
49.90571390463681
50.452321239134555
52.45336382938416
56.16414911323864
47.896920576189565
60.99385965691436
12.666130204355298
5.012224389557204
6.801358672520166
10.597096273707479
18.076541886982398
29.36907285891664
40.198352436740926
44.70832799054861
47.21673067855525
48.75389581714002
49.64618715348654
50.2482411970898
50.7766980412885
51.22562136384286
51.66329638065969
52.05103863576258
52.29286448830806
52.453381706424345
52.49538489264304
52.42189132696253
52.29254658858529
52.141206909933786
51.94933179664499
51.77903572103996
51.61332456810864
51.46410306439878
51.38335408594623
51.39562924892909
51.51679239974038
51.887225676613
52.49009286378081
53.15504557912462
53.69236098675597
54.27807485273293
56.22200665403831
53.35095651739051
50.199668740851095
31.84102057442871
31.843410506798435
26.330543194596217
5.812884439960882
8.220021756591692
19.060287495151826
31.094860639222162
38.0502817149608
42.51397903455226
45.32817234155911
47.149906324020314
48.438137793356766
49.25516036028734
49.72812508121482
50.024671001754164
50.233885949589826
50.34671712836238
50.352560389697096
50.26583959844123
50.13284345344464
49.971740233701034
49.8024351899001
49.633923358534155
49.49875350250159
49.40253029839538
49.353982881796064
49.33841443373777
49.43076070726919
49.63117742006422
49.95182457763054
50.45222881822744
51.2209967276796
52.4788674324318
54.67928456200894
57.745118102855194
58.081130293633095
56.551490561500046
53.35159338077695
50.61122995264604
51.327317096830626
)
;

boundaryField
{
    ".*"
    {
        type            zeroGradient;
    }
}


// ************************************************************************* //
