/*--------------------------------*- C++ -*----------------------------------*\
  =========                 |
  \\      /  F ield         | OpenFOAM: The Open Source CFD Toolbox
   \\    /   O peration     | Website:  https://openfoam.org
    \\  /    A nd           | Version:  6
     \\/     M anipulation  |
\*---------------------------------------------------------------------------*/
FoamFile
{
    version     2.0;
    format      ascii;
    class       volScalarField;
    location    "450";
    object      T;
}
// * * * * * * * * * * * * * * * * * * * * * * * * * * * * * * * * * * * * * //

dimensions      [0 0 0 1 0 0 0];

internalField   nonuniform List<scalar> 
796
(
300.691
300.563
300.561
300.565
300.568
300.571
300.574
300.577
300.579
300.582
300.584
300.586
300.588
300.589
300.591
300.592
300.593
300.593
300.593
300.592
300.59
300.587
300.583
300.577
300.57
300.56
300.55
300.537
300.521
300.505
300.489
300.474
300.463
300.456
300.452
300.452
300.452
300.454
300.457
300.502
300.739
300.573
300.562
300.566
300.571
300.576
300.58
300.584
300.589
300.592
300.596
300.6
300.603
300.606
300.609
300.611
300.613
300.615
300.615
300.615
300.614
300.611
300.607
300.6
300.592
300.583
300.572
300.56
300.548
300.534
300.521
300.507
300.495
300.485
300.478
300.473
300.471
300.47
300.474
300.522
300.777
300.59
300.567
300.569
300.575
300.581
300.586
300.592
300.597
300.602
300.607
300.611
300.616
300.62
300.623
300.627
300.63
300.632
300.633
300.634
300.632
300.629
300.624
300.617
300.608
300.598
300.588
300.578
300.567
300.555
300.543
300.531
300.519
300.508
300.5
300.493
300.488
300.485
300.491
300.541
300.809
300.608
300.572
300.572
300.578
300.584
300.591
300.597
300.603
300.609
300.614
300.62
300.625
300.63
300.634
300.638
300.642
300.645
300.647
300.648
300.647
300.643
300.637
300.628
300.619
300.609
300.6
300.59
300.58
300.57
300.56
300.549
300.538
300.527
300.517
300.509
300.502
300.497
300.504
300.557
300.838
300.627
300.58
300.573
300.579
300.586
300.593
300.6
300.606
300.613
300.619
300.625
300.631
300.636
300.641
300.646
300.65
300.654
300.657
300.658
300.657
300.652
300.644
300.634
300.624
300.614
300.605
300.596
300.587
300.578
300.569
300.56
300.55
300.54
300.53
300.521
300.512
300.506
300.515
300.571
300.864
300.647
300.589
300.574
300.58
300.587
300.594
300.601
300.608
300.614
300.621
300.627
300.633
300.639
300.645
300.65
300.655
300.66
300.663
300.665
300.663
300.658
300.648
300.637
300.625
300.615
300.605
300.595
300.587
300.579
300.571
300.563
300.555
300.546
300.536
300.527
300.517
300.513
300.524
300.585
300.888
300.666
300.599
300.576
300.579
300.585
300.592
300.6
300.607
300.614
300.62
300.627
300.634
300.64
300.647
300.653
300.659
300.664
300.668
300.669
300.668
300.66
300.648
300.636
300.623
300.611
300.6
300.59
300.582
300.574
300.567
300.56
300.553
300.545
300.536
300.527
300.518
300.515
300.53
300.596
300.911
300.685
300.61
300.578
300.577
300.583
300.59
300.597
300.604
300.611
300.618
300.625
300.632
300.64
300.647
300.654
300.661
300.667
300.671
300.673
300.67
300.66
300.647
300.633
300.618
300.605
300.592
300.582
300.572
300.565
300.558
300.552
300.546
300.539
300.532
300.523
300.515
300.516
300.535
300.607
300.933
300.704
300.622
300.581
300.574
300.579
300.586
300.593
300.6
300.607
300.614
300.622
300.63
300.639
300.648
300.656
300.663
300.67
300.674
300.676
300.671
300.66
300.644
300.627
300.611
300.596
300.582
300.57
300.56
300.552
300.546
300.54
300.535
300.529
300.523
300.516
300.51
300.515
300.539
300.616
300.955
300.724
300.637
300.586
300.571
300.575
300.581
300.587
300.594
300.601
300.609
300.618
300.628
300.638
300.649
300.658
300.666
300.672
300.677
300.678
300.672
300.658
300.639
300.62
300.601
300.584
300.569
300.557
300.546
300.537
300.531
300.525
300.521
300.517
300.512
300.507
300.504
300.514
300.542
300.624
300.976
300.75
300.657
300.597
300.571
300.57
300.575
300.58
300.587
300.595
300.604
300.614
300.626
300.639
300.65
300.661
300.669
300.675
300.679
300.68
300.672
300.654
300.633
300.611
300.59
300.572
300.556
300.541
300.529
300.52
300.513
300.508
300.505
300.502
300.499
300.496
300.497
300.513
300.545
300.632
300.997
300.778
300.683
300.617
300.579
300.567
300.569
300.574
300.58
300.588
300.598
300.611
300.627
300.641
300.654
300.664
300.672
300.678
300.681
300.681
300.671
300.649
300.624
300.6
300.578
300.559
300.541
300.525
300.512
300.502
300.495
300.49
300.487
300.486
300.485
300.485
300.491
300.512
300.547
300.638
301.018
300.801
300.713
300.652
300.609
300.581
300.572
300.572
300.576
300.584
300.595
300.613
300.632
300.647
300.659
300.669
300.676
300.681
300.684
300.683
300.668
300.643
300.615
300.589
300.566
300.545
300.527
300.51
300.496
300.485
300.476
300.472
300.47
300.47
300.471
300.474
300.486
300.513
300.551
300.644
301.034
300.834
300.758
300.706
300.663
300.629
300.607
300.595
300.591
300.596
300.609
300.627
300.643
300.656
300.667
300.674
300.68
300.684
300.686
300.684
300.665
300.635
300.604
300.578
300.555
300.534
300.515
300.498
300.483
300.47
300.461
300.457
300.456
300.457
300.46
300.467
300.485
300.516
300.557
300.651
301.069
300.909
300.846
300.792
300.744
300.704
300.674
300.653
300.642
300.639
300.644
300.653
300.662
300.671
300.677
300.682
300.685
300.687
300.688
300.686
300.66
300.625
300.594
300.567
300.546
300.526
300.508
300.492
300.477
300.464
300.455
300.45
300.449
300.45
300.455
300.467
300.489
300.523
300.566
300.658
301.128
301.052
300.966
300.901
300.842
300.793
300.755
300.726
300.707
300.696
300.69
300.687
300.687
300.688
300.689
300.689
300.689
300.69
300.69
300.687
300.654
300.615
300.584
300.56
300.542
300.525
300.51
300.495
300.482
300.471
300.463
300.458
300.456
300.459
300.465
300.477
300.499
300.531
300.575
300.664
300.019
300.601
300.729
300.752
300.748
300.737
300.726
300.717
300.712
300.707
300.703
300.7
300.697
300.695
300.693
300.692
300.692
300.689
300.647
300.606
300.578
300.56
300.546
300.533
300.521
300.51
300.501
300.493
300.487
300.483
300.482
300.484
300.49
300.499
300.515
300.54
300.58
300.67
300.118
300.55
300.662
300.707
300.722
300.724
300.721
300.717
300.713
300.709
300.706
300.703
300.7
300.697
300.695
300.693
300.694
300.693
300.64
300.599
300.58
300.568
300.558
300.549
300.542
300.536
300.532
300.528
300.526
300.524
300.523
300.524
300.527
300.533
300.543
300.558
300.588
300.67
300.704
300.634
300.267
300.532
300.64
300.686
300.703
300.709
300.71
300.708
300.707
300.704
300.702
300.7
300.699
300.697
300.696
300.696
300.697
300.699
300.635
300.603
300.591
300.584
300.579
300.575
300.573
300.572
300.572
300.572
300.573
300.575
300.576
300.577
300.579
300.582
300.588
300.595
300.611
300.681
300.585
300.432
300.416
300.583
300.65
300.681
300.696
300.701
300.703
300.704
300.705
300.705
300.706
300.707
300.707
300.708
300.709
300.71
300.712
300.711
300.64
300.619
300.616
300.616
300.616
300.617
300.619
300.622
300.625
300.629
300.633
300.637
300.641
300.645
300.649
300.654
300.659
300.666
300.673
300.704
)
;

boundaryField
{
    floor
    {
        type            wallHeatTransfer;
        Tinf            uniform 301;
        alphaWall       uniform 0.36;
        value           nonuniform List<scalar> 
40
(
300.773
300.68
300.693
300.694
300.694
300.694
300.694
300.694
300.694
300.694
300.694
300.694
300.694
300.694
300.693
300.693
300.692
300.691
300.69
300.689
300.687
300.684
300.682
300.679
300.675
300.672
300.668
300.664
300.659
300.654
300.648
300.643
300.638
300.634
300.63
300.626
300.616
300.594
300.572
300.615
)
;
    }
    ceiling
    {
        type            wallHeatTransfer;
        Tinf            uniform 301;
        alphaWall       uniform 0.36;
        value           nonuniform List<scalar> 
43
(
300.623
300.481
300.465
300.619
300.685
300.716
300.731
300.737
300.741
300.744
300.747
300.749
300.751
300.753
300.755
300.757
300.76
300.762
300.765
300.766
300.703
300.681
300.676
300.673
300.671
300.67
300.67
300.671
300.672
300.673
300.675
300.677
300.678
300.68
300.682
300.685
300.688
300.692
300.697
300.728
301.119
301.048
300.183
)
;
    }
    sWall
    {
        type            wallHeatTransfer;
        Tinf            uniform 313.2;
        alphaWall       uniform 0.54;
        value           nonuniform List<scalar> 
18
(
305.128
303.795
303.215
302.882
302.67
302.528
302.428
302.355
302.3
302.262
302.232
302.21
302.195
302.177
302.223
302.344
302.312
302.254
)
;
    }
    nWall
    {
        type            wallHeatTransfer;
        Tinf            uniform 305.6;
        alphaWall       uniform 0.54;
        value           nonuniform List<scalar> 
20
(
302.071
301.76
301.59
301.485
301.418
301.372
301.339
301.315
301.295
301.28
301.267
301.254
301.244
301.239
301.235
301.23
301.223
301.205
301.225
301.28
)
;
    }
    sideWalls
    {
        type            empty;
    }
    inlet
    {
        type            fixedValue;
        value           uniform 298.15;
    }
    outlet
    {
        type            zeroGradient;
    }
}


// ************************************************************************* //
