/*--------------------------------*- C++ -*----------------------------------*\
  =========                 |
  \\      /  F ield         | OpenFOAM: The Open Source CFD Toolbox
   \\    /   O peration     | Website:  https://openfoam.org
    \\  /    A nd           | Version:  6
     \\/     M anipulation  |
\*---------------------------------------------------------------------------*/
FoamFile
{
    version     2.0;
    format      ascii;
    class       volVectorField;
    location    "450";
    object      U;
}
// * * * * * * * * * * * * * * * * * * * * * * * * * * * * * * * * * * * * * //

dimensions      [0 1 -1 0 0 0 0];

internalField   nonuniform List<vector> 
458
(
(0.0318372 0.0922201 0)
(-0.180389 0.0278204 0)
(-0.210362 0.0183777 0)
(-0.244476 0.0106153 0)
(-0.267235 0.00200534 0)
(-0.276394 -0.00749231 0)
(-0.268599 -0.0181463 0)
(-0.242634 -0.0302804 0)
(-0.199087 -0.042214 0)
(-0.142568 -0.0515451 0)
(-0.0811511 -0.0558775 0)
(-0.0222746 -0.0518844 0)
(0.0300031 -0.0271905 0)
(0.0463025 -0.00399525 0)
(0.0300499 0.0315343 0)
(-0.00997229 0.0106221 0)
(-0.0394888 -0.0210178 0)
(-0.0134579 -0.0341001 0)
(0.0196354 -0.0282044 0)
(0.0409935 -0.019796 0)
(0.0571145 -0.0106904 0)
(0.0664857 -0.0059236 0)
(0.0703857 -0.0041843 0)
(0.0717021 -0.00351303 0)
(0.072246 -0.0030938 0)
(0.0724444 -0.00276265 0)
(0.0722281 -0.00241042 0)
(0.0714147 -0.00186655 0)
(0.0694832 -0.000760054 0)
(0.0652863 0.00139656 0)
(0.0575828 0.00376431 0)
(0.0509923 0.00605754 0)
(-0.014126 0.02495 0)
(0.214446 0.190266 0)
(-0.168417 0.0766369 0)
(-0.172396 0.0602201 0)
(-0.208935 0.0447993 0)
(-0.232813 0.0267667 0)
(-0.243688 0.00547412 0)
(-0.238283 -0.0197974 0)
(-0.215718 -0.0474535 0)
(-0.177515 -0.0725616 0)
(-0.128792 -0.0893678 0)
(-0.0771911 -0.0936228 0)
(-0.0304847 -0.0820366 0)
(0.011371 -0.0483849 0)
(0.0401311 -0.0117197 0)
(0.061622 0.0269708 0)
(0.0827336 0.0393802 0)
(0.0757966 0.0547958 0)
(-0.00694505 0.086223 0)
(0.0765251 0.0478639 0)
(0.0106258 -0.0261332 0)
(0.0284792 -0.043355 0)
(0.0447525 -0.0399394 0)
(0.0586138 -0.0298678 0)
(0.0660748 -0.0129085 0)
(0.0679494 -0.00278142 0)
(0.0678985 0.000964482 0)
(0.0679807 0.00230904 0)
(0.0682915 0.00304029 0)
(0.068519 0.00355695 0)
(0.0685531 0.0040113 0)
(0.0683989 0.00481057 0)
(0.067564 0.00683073 0)
(0.0637179 0.0124674 0)
(0.0540172 0.0173314 0)
(0.0524457 0.0209942 0)
(-0.0642052 0.0535399 0)
(0.382648 0.28558 0)
(-0.184718 0.122311 0)
(-0.131719 0.0980933 0)
(-0.168954 0.0708016 0)
(-0.192115 0.0407723 0)
(-0.204257 0.00599069 0)
(-0.200628 -0.0344042 0)
(-0.179843 -0.078005 0)
(-0.145463 -0.115511 0)
(-0.103521 -0.137699 0)
(-0.0611074 -0.1397 0)
(-0.0242321 -0.120122 0)
(0.00807192 -0.0789017 0)
(0.033047 -0.0370346 0)
(0.053457 -0.00304978 0)
(0.0629712 0.0106215 0)
(0.060412 0.0299373 0)
(-0.0247562 0.0764598 0)
(0.138276 -0.00747155 0)
(0.075526 -0.0362314 0)
(0.0657116 -0.0476031 0)
(0.069611 -0.0469415 0)
(0.0750786 -0.0418517 0)
(0.0775969 -0.0303717 0)
(0.0677606 -0.0192543 0)
(0.0602507 -0.0133918 0)
(0.0575944 -0.0101766 0)
(0.0570436 -0.00812064 0)
(0.0569669 -0.00672317 0)
(0.0572278 -0.00560676 0)
(0.0582977 -0.00430333 0)
(0.0612793 -0.000624705 0)
(0.0599773 0.0170455 0)
(0.0470541 0.0286807 0)
(0.0588196 0.0362539 0)
(-0.111321 0.0809887 0)
(0.536856 0.36285 0)
(-0.220101 0.16302 0)
(-0.0866293 0.132384 0)
(-0.124197 0.0957122 0)
(-0.143462 0.0571721 0)
(-0.155126 0.0111456 0)
(-0.151409 -0.0445474 0)
(-0.130304 -0.104583 0)
(-0.100057 -0.152854 0)
(-0.0663447 -0.178388 0)
(-0.0345906 -0.177472 0)
(-0.00816052 -0.150958 0)
(0.0145167 -0.104501 0)
(0.0330936 -0.0575314 0)
(0.0481577 -0.0175344 0)
(0.0579703 0.0112571 0)
(0.0698841 0.0380458 0)
(0.0591424 0.0741329 0)
(0.103152 0.0865762 0)
(0.0967088 0.0022659 0)
(0.0820429 -0.033408 0)
(0.0770398 -0.043964 0)
(0.0735369 -0.0444692 0)
(0.0676921 -0.0388005 0)
(0.0684451 -0.0235411 0)
(0.0809409 -0.0154481 0)
(0.0909759 -0.0111008 0)
(0.0967692 -0.0083784 0)
(0.0999407 -0.00608313 0)
(0.100748 -0.0036471 0)
(0.0979241 -0.000623538 0)
(0.0901831 0.00340316 0)
(0.0754005 0.00914776 0)
(0.0582245 0.0282657 0)
(0.0414663 0.044534 0)
(0.0671248 0.0569384 0)
(-0.156015 0.10268 0)
(0.674761 0.422646 0)
(-0.265918 0.195798 0)
(-0.0387345 0.154642 0)
(-0.0752626 0.112523 0)
(-0.0871888 0.0693004 0)
(-0.0955728 0.0154555 0)
(-0.0867868 -0.0537249 0)
(-0.0635112 -0.128828 0)
(-0.0400342 -0.182706 0)
(-0.0177074 -0.20755 0)
(0.000780371 -0.202077 0)
(0.01451 -0.169813 0)
(0.0256564 -0.121687 0)
(0.0355742 -0.0712769 0)
(0.0441523 -0.0277803 0)
(0.0521404 0.00573628 0)
(0.063195 0.0315254 0)
(0.0745145 0.0422641 0)
(0.09069 0.00978023 0)
(0.090121 -0.0222554 0)
(0.08295 -0.0354498 0)
(0.0739865 -0.0394173 0)
(0.0655434 -0.0381619 0)
(0.0584676 -0.0316789 0)
(0.0570745 -0.0184104 0)
(0.061392 -0.0105627 0)
(0.0663257 -0.00712584 0)
(0.0703869 -0.00497117 0)
(0.0737259 -0.00221827 0)
(0.0761636 0.00203704 0)
(0.0762969 0.00783996 0)
(0.0734496 0.0153533 0)
(0.0673494 0.0252691 0)
(0.059219 0.0409178 0)
(0.0460917 0.0581772 0)
(0.0780122 0.0778849 0)
(-0.0197299 0.109072 0)
(0.0502923 0.166066 0)
(-0.0968752 0.0836613 0)
(-0.290416 0.00157216 0)
(0.780754 0.471869 0)
(-0.314284 0.217214 0)
(0.002673 0.156018 0)
(-0.0242619 0.11993 0)
(-0.0272563 0.0778018 0)
(-0.0308579 0.0205852 0)
(-0.00468048 -0.0663202 0)
(0.018829 -0.152203 0)
(0.0315716 -0.202675 0)
(0.0392343 -0.221688 0)
(0.0415745 -0.211311 0)
(0.0401901 -0.176349 0)
(0.0375902 -0.126635 0)
(0.0354986 -0.0751468 0)
(0.0348755 -0.0318306 0)
(0.0370943 -0.000477657 0)
(0.0440644 0.0199094 0)
(0.0555581 0.023763 0)
(0.0653293 0.0058644 0)
(0.0658173 -0.0118375 0)
(0.0595811 -0.0236248 0)
(0.0507029 -0.0291495 0)
(0.0421447 -0.029613 0)
(0.0354 -0.0258272 0)
(0.0325795 -0.0188277 0)
(0.033952 -0.0142256 0)
(0.0373152 -0.0120911 0)
(0.0414144 -0.0103603 0)
(0.0458696 -0.00739589 0)
(0.0503057 -0.00203374 0)
(0.0544224 0.00607359 0)
(0.0565617 0.0163044 0)
(0.0573245 0.0286484 0)
(0.0582161 0.043887 0)
(0.0560421 0.0608217 0)
(0.0821816 0.0826829 0)
(0.0631108 0.0950154 0)
(0.101814 0.103286 0)
(0.124112 0.0576474 0)
(-0.148025 -0.039366 0)
(0.841015 0.51607 0)
(-0.342834 0.20022 0)
(0.036629 0.107718 0)
(0.0383128 0.10661 0)
(0.0415743 0.0735231 0)
(0.0553679 0.0012236 0)
(0.0925719 -0.0936082 0)
(0.109 -0.165669 0)
(0.109528 -0.207354 0)
(0.100085 -0.218831 0)
(0.0837215 -0.203438 0)
(0.0638353 -0.166118 0)
(0.0441648 -0.116394 0)
(0.0277937 -0.0664443 0)
(0.0168002 -0.026578 0)
(0.0124777 -0.000929863 0)
(0.0161185 0.0127876 0)
(0.024423 0.0143754 0)
(0.0303421 0.00418264 0)
(0.0303246 -0.00784379 0)
(0.0254547 -0.0168741 0)
(0.0181322 -0.0215276 0)
(0.0106964 -0.02253 0)
(0.00473926 -0.0209362 0)
(0.00180388 -0.018002 0)
(0.00215212 -0.016245 0)
(0.00452898 -0.0156612 0)
(0.00804312 -0.0149152 0)
(0.0124755 -0.0127309 0)
(0.0178614 -0.00787469 0)
(0.0253218 0.000814639 0)
(0.0329008 0.0121363 0)
(0.0398278 0.0246345 0)
(0.0481636 0.0383337 0)
(0.0559962 0.0523142 0)
(0.0782353 0.0696467 0)
(0.0911037 0.0738671 0)
(0.12639 0.0641167 0)
(0.17409 0.0488169 0)
(-0.0113624 0.0967089 0)
(0.95083 0.5174 0)
(-0.0707931 0.181006 0)
(0.116189 0.0481831 0)
(0.164652 0.0335137 0)
(0.160022 0.000842126 0)
(0.187294 -0.0642197 0)
(0.211459 -0.123884 0)
(0.210189 -0.169852 0)
(0.189422 -0.194334 0)
(0.156266 -0.195088 0)
(0.116135 -0.17462 0)
(0.074295 -0.136534 0)
(0.036049 -0.0893954 0)
(0.00611255 -0.0446314 0)
(-0.012108 -0.0131568 0)
(-0.0184127 0.00177776 0)
(-0.0164277 0.00844725 0)
(-0.0112695 0.00855508 0)
(-0.00789841 0.00252141 0)
(-0.00841852 -0.00513704 0)
(-0.0124136 -0.0112074 0)
(-0.0183046 -0.0146974 0)
(-0.0243215 -0.0161758 0)
(-0.0291997 -0.0165258 0)
(-0.0321111 -0.0165741 0)
(-0.0331468 -0.017061 0)
(-0.0330206 -0.0178011 0)
(-0.0321776 -0.0181865 0)
(-0.030606 -0.017605 0)
(-0.0279289 -0.0154285 0)
(-0.0230611 -0.0108635 0)
(-0.0122447 -0.00311275 0)
(-0.000923744 0.00672899 0)
(0.0113746 0.0160367 0)
(0.0230864 0.0231447 0)
(0.0411764 0.0309627 0)
(0.0561428 0.0254354 0)
(0.0803071 0.00667128 0)
(0.149867 0.0528886 0)
(-0.475958 0.227934 0)
(1.09925 0.455314 0)
(0.542363 0.304812 0)
(0.543821 0.24943 0)
(0.51928 0.170727 0)
(0.469859 0.097425 0)
(0.426191 0.0204559 0)
(0.370541 -0.0547929 0)
(0.310373 -0.111437 0)
(0.247336 -0.140267 0)
(0.18172 -0.141813 0)
(0.11547 -0.122866 0)
(0.0527767 -0.0882921 0)
(0.000508081 -0.0473838 0)
(-0.0327243 -0.0166438 0)
(-0.0465877 -0.00268053 0)
(-0.0509843 0.00323985 0)
(-0.0499425 0.00540418 0)
(-0.0473016 0.00469722 0)
(-0.0458877 0.00130192 0)
(-0.0467819 -0.00313232 0)
(-0.0499524 -0.00714404 0)
(-0.0544479 -0.0101218 0)
(-0.0592268 -0.0122293 0)
(-0.0636503 -0.0137882 0)
(-0.0675263 -0.0150487 0)
(-0.0711342 -0.0161416 0)
(-0.0749493 -0.0168645 0)
(-0.0793564 -0.0168014 0)
(-0.0846859 -0.0154277 0)
(-0.0913845 -0.012091 0)
(-0.100143 -0.00593448 0)
(-0.111638 0.00378584 0)
(-0.123446 0.0167951 0)
(-0.140825 0.0332117 0)
(-0.169344 0.0528805 0)
(-0.211591 0.0738847 0)
(-0.269487 0.0908281 0)
(-0.331877 0.0995699 0)
(-0.40922 0.0991143 0)
(-0.692616 0.0884849 0)
(0.232386 0.166333 0)
(0.300338 0.164423 0)
(0.311146 0.0934091 0)
(0.281523 0.017267 0)
(0.251568 -0.0389566 0)
(0.21086 -0.0723072 0)
(0.159922 -0.0842991 0)
(0.100721 -0.077134 0)
(0.0371903 -0.0577933 0)
(-0.0267893 -0.0283449 0)
(-0.0598605 -0.0112164 0)
(-0.076473 -0.00371914 0)
(-0.0821577 -0.00175018 0)
(-0.0830333 -0.00166103 0)
(-0.0819798 -0.0023223 0)
(-0.0804574 -0.00388264 0)
(-0.0797991 -0.00657335 0)
(-0.0804848 -0.00966002 0)
(-0.0824523 -0.0123105 0)
(-0.0852789 -0.0145997 0)
(-0.0886656 -0.0165053 0)
(-0.0925528 -0.0180394 0)
(-0.0970659 -0.0191986 0)
(-0.102418 -0.0199002 0)
(-0.108749 -0.0198652 0)
(-0.115988 -0.0185937 0)
(-0.123768 -0.0154005 0)
(-0.131355 -0.0095169 0)
(-0.137807 -0.000172626 0)
(-0.142227 0.0122222 0)
(-0.145634 0.0284485 0)
(-0.148717 0.0490024 0)
(-0.153137 0.0728417 0)
(-0.159845 0.0954317 0)
(-0.164756 0.105278 0)
(-0.149555 0.0789769 0)
(-0.105995 -0.030104 0)
(-0.292314 -0.238264 0)
(0.139358 0.382338 0)
(0.0146805 0.221886 0)
(0.0424198 0.11388 0)
(0.0536573 0.0476938 0)
(0.0573723 0.0118521 0)
(0.0400417 -0.0116802 0)
(0.00141046 -0.0103992 0)
(-0.0453113 0.0137987 0)
(-0.0819778 0.0304818 0)
(-0.103212 0.039021 0)
(-0.11118 0.0414909 0)
(-0.112878 0.0421367 0)
(-0.112203 0.0429577 0)
(-0.110706 0.0443833 0)
(-0.108899 0.046482 0)
(-0.107079 0.0489298 0)
(-0.105739 0.0511212 0)
(-0.105186 0.0521283 0)
(-0.105313 0.0518181 0)
(-0.106126 0.0516037 0)
(-0.107571 0.0514904 0)
(-0.109566 0.0514104 0)
(-0.112027 0.0512702 0)
(-0.114883 0.0508968 0)
(-0.118043 0.0500945 0)
(-0.121374 0.0486723 0)
(-0.124679 0.0464125 0)
(-0.127525 0.042909 0)
(-0.128823 0.0397774 0)
(-0.126936 0.039883 0)
(-0.120082 0.0449194 0)
(-0.106951 0.0562276 0)
(-0.0879982 0.0739373 0)
(-0.0647775 0.0937179 0)
(-0.0397278 0.107198 0)
(0.00081414 0.0952162 0)
(0.145558 0.0145975 0)
(-0.205291 -0.156098 0)
(-0.510089 -0.573101 0)
(-0.706189 -0.154883 0)
(-0.47151 0.215768 0)
(-0.365349 0.0470081 0)
(-0.201508 -0.0458715 0)
(-0.140515 -0.10654 0)
(-0.125939 -0.1285 0)
(-0.131317 -0.121879 0)
(-0.145193 -0.114126 0)
(-0.150093 -0.108573 0)
(-0.146614 -0.105465 0)
(-0.140695 -0.106691 0)
(-0.134192 -0.111877 0)
(-0.128721 -0.117853 0)
(-0.124379 -0.123496 0)
(-0.120768 -0.12915 0)
(-0.117651 -0.135417 0)
(-0.115038 -0.142681 0)
(-0.113168 -0.150379 0)
(-0.112399 -0.156917 0)
(-0.113058 -0.161603 0)
(-0.115048 -0.1648 0)
(-0.117957 -0.166476 0)
(-0.12142 -0.166657 0)
(-0.12509 -0.165319 0)
(-0.128633 -0.162331 0)
(-0.131702 -0.157446 0)
(-0.133891 -0.150293 0)
(-0.134744 -0.140336 0)
(-0.133764 -0.126835 0)
(-0.130113 -0.111022 0)
(-0.121628 -0.0934906 0)
(-0.105001 -0.0743038 0)
(-0.077567 -0.0527305 0)
(-0.0400576 -0.0278628 0)
(0.0218719 0.0035836 0)
(0.078686 0.00706015 0)
(0.132153 -0.017979 0)
(0.186834 -0.0696768 0)
(-0.153739 -0.145996 0)
)
;

boundaryField
{
    floor
    {
        type            noSlip;
    }
    ceiling
    {
        type            noSlip;
    }
    sWall
    {
        type            noSlip;
    }
    nWall
    {
        type            noSlip;
    }
    sideWalls
    {
        type            empty;
    }
    glass1
    {
        type            noSlip;
    }
    glass2
    {
        type            noSlip;
    }
    sun
    {
        type            noSlip;
    }
    Table_master
    {
        type            noSlip;
    }
    Table_slave
    {
        type            noSlip;
    }
    inlet
    {
        type            fixedValue;
        value           uniform (0.5 0 0);
    }
    outlet
    {
        type            zeroGradient;
    }
}


// ************************************************************************* //
