/*--------------------------------*- C++ -*----------------------------------*\
  =========                 |
  \\      /  F ield         | OpenFOAM: The Open Source CFD Toolbox
   \\    /   O peration     | Website:  https://openfoam.org
    \\  /    A nd           | Version:  6
     \\/     M anipulation  |
\*---------------------------------------------------------------------------*/
FoamFile
{
    version     2.0;
    format      ascii;
    class       volScalarField;
    location    "25599.9999988359887";
    object      k;
}
// * * * * * * * * * * * * * * * * * * * * * * * * * * * * * * * * * * * * * //

dimensions      [0 2 -2 0 0 0 0];

internalField   nonuniform List<scalar> 
778
(
0.00158602
0.0018013
0.0017882
0.00194677
0.00209798
0.00224017
0.00237672
0.00251215
0.00265226
0.00280534
0.00295527
0.00310131
0.00324862
0.00341092
0.00358453
0.000792441
0.0016257
0.00165179
0.00157259
0.00144464
0.00128227
0.00113022
0.000998724
0.00088715
0.000792699
0.000712979
0.00064496
0.000585959
0.000533443
0.000484705
0.000436243
0.00039795
0.00032609
0.00340716
0.00643402
0.00268775
0.00274628
0.00288796
0.00305449
0.00323472
0.00343028
0.00364321
0.00387315
0.00412481
0.0043782
0.00459374
0.004699
0.00459354
0.00429712
0.00390604
0.00357924
0.00253848
0.00281394
0.00295586
0.00289758
0.00266412
0.00226456
0.00190508
0.00160885
0.00136923
0.00117555
0.00101689
0.000885183
0.00077397
0.00068118
0.000615196
0.000574725
0.000864698
0.000524264
0.00549114
0.0127827
0.00347832
0.00321224
0.00329754
0.00345533
0.0036366
0.00384056
0.00407055
0.00432675
0.00463442
0.00500944
0.00544949
0.00595926
0.00653105
0.0068606
0.00627828
0.00538617
0.00403741
0.00416972
0.00417347
0.00397598
0.00357816
0.00266627
0.00201579
0.00157588
0.00126941
0.00104924
0.000886879
0.000764593
0.000671832
0.000603671
0.000551475
0.000548743
0.00116621
0.000678737
0.00797416
0.0217618
0.00449188
0.00339082
0.00334152
0.00343802
0.00354928
0.00366857
0.00380853
0.00399048
0.00425797
0.00464704
0.00516973
0.00582409
0.00655442
0.00713532
0.0072292
0.00724661
0.00534095
0.00554606
0.0053739
0.00512456
0.00478656
0.00434819
0.00345625
0.00285953
0.00243635
0.00211001
0.00185041
0.00163185
0.00143844
0.00125847
0.00107761
0.000800746
0.000659841
0.0014231
0.000823178
0.0108773
0.0336403
0.0062143
0.0034251
0.00315825
0.00316685
0.00318937
0.00320953
0.00325161
0.00336033
0.00359369
0.0039879
0.0045521
0.00527573
0.00608644
0.00681757
0.00728237
0.00764154
0.00751219
0.00665018
0.00607036
0.00557728
0.00509828
0.0046293
0.00412344
0.00366594
0.0032751
0.00293726
0.00263083
0.00234723
0.00207865
0.001818
0.00155467
0.00122193
0.000930382
0.00119145
0.00121719
0.00117111
0.00205491
0.00188942
0.0141762
0.0476062
0.00928692
0.00349026
0.00290852
0.00282261
0.00276418
0.00269922
0.0026638
0.00273403
0.00298015
0.00341352
0.00402291
0.00479772
0.00565382
0.00646147
0.00706745
0.00740419
0.00731924
0.00678592
0.00621209
0.00563536
0.00507347
0.00455583
0.0040915
0.00369589
0.00336316
0.00307363
0.00280649
0.00255101
0.0022984
0.00204177
0.0017737
0.00147142
0.00117824
0.00111293
0.00111255
0.00171606
0.00511368
0.00270101
0.0179939
0.0606129
0.0143653
0.00382018
0.00271526
0.0025293
0.0024116
0.00229372
0.00222067
0.00231122
0.00263006
0.00313932
0.00380259
0.00463322
0.00553074
0.00636859
0.00700131
0.00732663
0.00725171
0.00681535
0.00621343
0.00555377
0.0049115
0.00434275
0.00387263
0.00350059
0.00320678
0.0029618
0.00274116
0.00252864
0.00231289
0.00208675
0.00184516
0.00158294
0.0013266
0.00115978
0.00109362
0.0015664
0.00634401
0.00375647
0.0216432
0.0704858
0.0214434
0.00510402
0.00274305
0.00237179
0.00220996
0.00208161
0.0020259
0.0022191
0.00264967
0.00323159
0.00393933
0.00477863
0.00570461
0.00657893
0.00722718
0.00751505
0.00738382
0.00689553
0.00619812
0.00542748
0.00469228
0.00406512
0.00357491
0.00321282
0.00294789
0.00274125
0.00256424
0.00239548
0.00222143
0.00203471
0.00183171
0.00161251
0.00139512
0.00122845
0.00116011
0.00215375
0.0138691
0.00645034
0.0228342
0.0694871
0.0325421
0.0110636
0.00406926
0.00258764
0.00223531
0.00210262
0.00218949
0.00251176
0.00300011
0.00360306
0.00433626
0.00521989
0.00619481
0.00709702
0.0077239
0.00792651
0.00766614
0.00702704
0.0061677
0.00525157
0.00441036
0.00372452
0.00321806
0.00286992
0.00263642
0.00246992
0.00233678
0.00221124
0.00207863
0.00193195
0.00176873
0.00159068
0.00141124
0.00128337
0.00137524
0.00429751
0.0274145
0.00849923
0.0219175
0.0516233
0.033645
0.0174397
0.00859121
0.00476029
0.00326103
0.00272939
0.00285232
0.0032098
0.00367178
0.00424794
0.0050012
0.00594939
0.0069884
0.00790086
0.0084508
0.00848857
0.00800645
0.00712759
0.00604706
0.00496071
0.00401742
0.00329509
0.00280092
0.00249101
0.00230433
0.00218632
0.00209788
0.00201236
0.00191638
0.00180432
0.00167486
0.00153043
0.00138355
0.00129973
0.00185953
0.011258
0.0227535
0.00867556
0.0192303
0.0394257
0.0302357
0.0195687
0.0121849
0.00794005
0.00571733
0.00466854
0.00436079
0.00439788
0.00465144
0.00514759
0.00594355
0.00699609
0.00810671
0.00897974
0.00935241
0.00910056
0.00827656
0.00706697
0.00572165
0.00447111
0.00347105
0.00277539
0.0023532
0.0021192
0.00199493
0.00192721
0.00187704
0.00182286
0.00175478
0.00166882
0.00156483
0.00144666
0.0013303
0.00131117
0.00246524
0.0112077
0.0206211
0.00856279
0.0159451
0.03158
0.0266485
0.0195397
0.0139772
0.0102848
0.0080273
0.00675106
0.00604751
0.00572894
0.00578224
0.00627879
0.00722196
0.00843706
0.0095867
0.0102967
0.0103157
0.00959402
0.00828901
0.00667457
0.00507032
0.0037351
0.00280203
0.00224165
0.00196113
0.00182118
0.00175226
0.00171825
0.00169053
0.00165506
0.00160502
0.00153708
0.00145305
0.00135948
0.00127731
0.00131478
0.00239062
0.0096156
0.0204279
0.00885076
0.0132636
0.0256766
0.0233541
0.0186923
0.0145853
0.0115893
0.00954416
0.00820937
0.00729895
0.00683915
0.00696009
0.00772872
0.00899626
0.0103862
0.0114214
0.0117088
0.0110988
0.00968633
0.0077888
0.0057731
0.00404354
0.00284579
0.00220035
0.00186759
0.00170519
0.00162542
0.00158514
0.00156294
0.00154089
0.00151043
0.00146755
0.00141166
0.00134619
0.00128106
0.00125294
0.00144354
0.00274221
0.00921286
0.0176079
0.00996065
0.0133564
0.0224245
0.0220654
0.0177645
0.0143955
0.0118962
0.0100854
0.00876911
0.00791768
0.00777507
0.00847937
0.00988384
0.011547
0.0128877
0.0134012
0.0128222
0.0112465
0.00896267
0.00651974
0.0043117
0.0029612
0.00221869
0.00184991
0.00166808
0.00157533
0.00152337
0.00148938
0.00146219
0.00143248
0.00139553
0.00134977
0.00129858
0.00125527
0.00126367
0.00146118
0.00213616
0.00391911
0.00984598
0.0169733
0.010105
0.0108798
0.0117679
0.0129256
0.0125537
0.0113749
0.0100745
0.00894596
0.00820178
0.00830117
0.00941827
0.0113035
0.0133803
0.0149673
0.0155228
0.014798
0.0128186
0.0100903
0.00699012
0.00461256
0.00310794
0.00231796
0.00193287
0.0017432
0.00163956
0.0015738
0.00152412
0.0014799
0.00143586
0.00138984
0.00134146
0.00129219
0.00125491
0.00127172
0.00145886
0.00205806
0.00339632
0.00592895
0.0105373
0.0166095
0.00903427
0.00354169
0.00481962
0.00598848
0.00659176
0.00726887
0.00878423
0.0113037
0.0141425
0.0165682
0.0180009
0.0180685
0.0166986
0.0141296
0.0105192
0.00722569
0.00475282
0.00325951
0.00249855
0.00214674
0.00197525
0.00187584
0.00180503
0.0017463
0.00169276
0.00164129
0.00159041
0.00153981
0.00149911
0.0014717
0.00147444
0.00156255
0.00187169
0.00266261
0.00430048
0.00715538
0.0112191
0.0149607
0.00819737
0.00444659
0.00627786
0.00808815
0.010994
0.0146667
0.0181278
0.0203758
0.0214498
0.0213772
0.0201375
0.0175588
0.0140242
0.0103201
0.00702009
0.00470939
0.00339934
0.00278767
0.00252833
0.0024112
0.00234511
0.0022982
0.00226126
0.00223359
0.00221706
0.00221263
0.00221764
0.00222432
0.00222037
0.00222087
0.00225416
0.0023633
0.00266261
0.00336542
0.00481453
0.00743838
0.0116405
0.0179331
0.00854411
0.0150807
0.0245599
0.0181286
0.0143719
0.016962
0.020648
0.0227716
0.0234761
0.0230341
0.0216911
0.0196659
0.0169749
0.0137302
0.0103193
0.00732276
0.00521477
0.00407726
0.00359353
0.00341898
0.00335523
0.00331984
0.00328416
0.00324331
0.0032034
0.00317492
0.00316835
0.00319163
0.00324907
0.00334025
0.0034576
0.00358273
0.00372027
0.00395894
0.00436708
0.00509097
0.00641705
0.00890632
0.0142524
0.0181028
0.0103706
0.0138083
0.0170647
0.0178194
0.0207257
0.0216478
0.0220621
0.0210678
0.0192624
0.0171539
0.0149864
0.0128497
0.0107647
0.00876039
0.0069761
0.00560563
0.00477526
0.00438207
0.00424473
0.00423129
0.00426765
0.00431395
0.00435119
0.00437523
0.00439264
0.00441657
0.00446348
0.00455186
0.00470261
0.00493929
0.00528526
0.00575551
0.0063397
0.00698456
0.0077162
0.00868515
0.0101681
0.0125616
0.0172958
0.0197095
0.0112581
0.0121324
0.00891468
0.00882963
0.00935862
0.00981217
0.00925727
0.00820493
0.00704616
0.00595797
0.00498699
0.00413457
0.00340905
0.00284264
0.0024681
0.00227808
0.00221078
0.00221403
0.0022511
0.00230202
0.00235697
0.00241177
0.00246624
0.00252347
0.00258948
0.00267316
0.00278628
0.00294335
0.00316001
0.00344909
0.00381529
0.00425282
0.00474985
0.00529971
0.00591476
0.00658924
0.00733114
0.00815586
0.00910409
0.0101791
0.00943292
)
;

boundaryField
{
    floor
    {
        type            kqRWallFunction;
        value           nonuniform List<scalar> 
36
(
0.00358453
0.000792441
0.0016257
0.00165179
0.00157259
0.00144464
0.00128227
0.00113022
0.000998724
0.00088715
0.000792699
0.000712979
0.00064496
0.000585959
0.000533443
0.000484705
0.000436243
0.00039795
0.00032609
0.00032609
0.000524264
0.000678737
0.000823178
0.00117111
0.00205491
0.00188942
0.00358453
0.00429712
0.00390604
0.00357924
0.000792441
0.00357924
0.00253848
0.00538617
0.00403741
0.00534095
)
;
    }
    ceiling
    {
        type            kqRWallFunction;
        value           nonuniform List<scalar> 
43
(
0.0121324
0.00891468
0.00882963
0.00935862
0.00981217
0.00925727
0.00820493
0.00704616
0.00595797
0.00498699
0.00413457
0.00340905
0.00284264
0.0024681
0.00227808
0.00221078
0.00221403
0.0022511
0.00230202
0.00235697
0.00241177
0.00246624
0.00252347
0.00258948
0.00267316
0.00278628
0.00294335
0.00316001
0.00344909
0.00381529
0.00425282
0.00474985
0.00529971
0.00591476
0.00658924
0.00733114
0.00815586
0.00910409
0.0101791
0.00943292
0.0108798
0.0117679
0.00444659
)
;
    }
    sWall
    {
        type            kqRWallFunction;
        value           nonuniform List<scalar> 9(0.0219175 0.0192303 0.0159451 0.0132636 0.0133564 0.0108798 0.0150807 0.0138083 0.0121324);
    }
    nWall
    {
        type            kqRWallFunction;
        value           nonuniform List<scalar> 
14
(
0.00188942
0.00270101
0.00375647
0.00867556
0.00856279
0.00885076
0.00996065
0.010105
0.00903427
0.00819737
0.00854411
0.0103706
0.0112581
0.00943292
)
;
    }
    sideWalls
    {
        type            empty;
    }
    glass1
    {
        type            kqRWallFunction;
        value           nonuniform List<scalar> 9(0.00158602 0.00340716 0.00549114 0.00797416 0.0108773 0.0141762 0.0179939 0.0216432 0.0228342);
    }
    glass2
    {
        type            kqRWallFunction;
        value           nonuniform List<scalar> 2(0.00645034 0.00849923);
    }
    sun
    {
        type            kqRWallFunction;
        value           nonuniform List<scalar> 
14
(
0.00158602
0.0018013
0.0017882
0.00194677
0.00209798
0.00224017
0.00237672
0.00251215
0.00265226
0.00280534
0.00295527
0.00310131
0.00324862
0.00341092
)
;
    }
    Table_master
    {
        type            kqRWallFunction;
        value           nonuniform List<scalar> 9(0.00266627 0.00201579 0.00157588 0.00126941 0.00104924 0.000886879 0.000764593 0.000671832 0.000603671);
    }
    Table_slave
    {
        type            kqRWallFunction;
        value           nonuniform List<scalar> 9(0.00345625 0.00285953 0.00243635 0.00211001 0.00185041 0.00163185 0.00143844 0.00125847 0.00107761);
    }
    inlet
    {
        type            turbulentIntensityKineticEnergyInlet;
        intensity       0.05;
        value           uniform 0.0009375;
    }
    outlet
    {
        type            zeroGradient;
    }
}


// ************************************************************************* //
