/*--------------------------------*- C++ -*----------------------------------*=========                 |
  \      /  F ield         | OpenFOAM: The Open Source CFD Toolbox
   \    /   O peration     | Website:  https://openfoam.org
    \  /    A nd           | Version:  6
     \/     M anipulation  |
\*---------------------------------------------------------------------------*/
FoamFile
{
    version     2.0;
    format      ascii;
    class       volScalarField;
    location    "530";
    object      PMV;
}
// * * * * * * * * * * * * * * * * * * * * * * * * * * * * * * * * * * * * * //

dimensions      [0 0 0 0 0 0 0];

internalField   nonuniform List<scalar> 
458
(
1.3242900705921885
1.0785650987180242
1.0452722864978286
1.0163565944315578
0.9984137870479678
0.9898169151130084
0.992451754785793
1.0068390287435443
1.0362786462210964
1.08459878982045
1.155526146436551
1.2253911158376305
1.2411465462427376
1.2492626663241797
1.2616751258495782
1.3776547573390292
1.3642938518851335
1.3604762930710939
1.3671569755645592
1.3719287609254267
1.3757461097037142
1.3712641907889576
1.3674094165958972
1.36835281556593
1.3706981344895663
1.3732002838767416
1.3769185507925605
1.3812635338184853
1.3881577824665483
1.3989504267264665
1.4081906144107033
1.412484328831802
1.4267959851005227
1.2569271097502241
1.0906150604900702
1.0780207946184974
1.0495225776621533
1.0327292938965942
1.0243531428725894
1.0260706090069787
1.0340480499013627
1.0484902748342704
1.0732643999913176
1.1136818975949543
1.1751501854725308
1.2378045515457048
1.2487852535612136
1.254208331639908
1.2120531306812834
1.2128772616117358
1.2356727484142385
1.3318872299334976
1.3509320976087513
1.3509320976087513
1.3585674879056773
1.3612280979118387
1.3609074933228542
1.3609778005374573
1.362583239974407
1.3633010473263174
1.3640425386463966
1.3644878107702851
1.3657711843662006
1.3673597974826552
1.3704769164961266
1.3790755979388052
1.387674860670655
1.3943546479975821
1.378638236226485
1.2887074160244192
1.0817087174988764
1.1107837968941079
1.0957625317028996
1.0890607841922029
1.085513157661001
1.085481399516368
1.0818757846562896
1.068157671924169
1.0564109995729225
1.0677489000770075
1.1172077484245653
1.2095872241956698
1.2554689621308066
1.2616751258495782
1.2645394637990313
1.2642415041602606
1.245679512789168
1.2419855634174501
1.3051868608212172
1.3142309237054555
1.3230833658504042
1.3343535206589878
1.338517372689893
1.36112110054276
1.3757461097037142
1.3762232732911068
1.3762232732911068
1.3767004357603732
1.377177597110137
1.377177597110137
1.3781319164455237
1.38099484743482
1.3843348820432524
1.37735175977051
1.3052362190071
1.362942061486608
1.074961290678454
1.1349521210627644
1.1455099912348596
1.163204477036917
1.1748174282222872
1.1768248846854383
1.1519652023278424
1.094452803556083
1.0408291867248918
1.0290291085046677
1.0758892691923092
1.1687783272308314
1.2619348767497982
1.2755191550210196
1.2769512564534529
1.2492301395940582
1.2250641448714223
1.174969031448613
1.241288557850019
1.2772954042445372
1.303812012496002
1.3344849788358495
1.3691310145967053
1.3962439202689114
1.3901485644416502
1.385019007052218
1.3839672559522953
1.3852813179706656
1.38839348912787
1.3950390328980895
1.4087472488736255
1.432031680233157
1.4309423196679962
1.4163008803313784
1.3573334196946698
1.2612424134314877
1.4570361887002845
1.0838187543762827
1.1525124834490243
1.1900882600823883
1.245824417363627
1.2927244939462268
1.301607915709304
1.2275494729738592
1.1159484320184767
1.0264995154297367
0.9998468445320026
1.0496891265185397
1.1448215962365373
1.2479506048847109
1.2950905435289983
1.2969998689090436
1.2838731458976618
1.2556059787150908
1.254408788491345
1.2708672517464012
1.3023438987880473
1.3432053204897325
1.3851242597748892
1.42601256884884
1.4544618986760331
1.466279684118797
1.467790745504754
1.4675388454126321
1.465969472415265
1.4631470823682053
1.4611788859286978
1.4605495830631496
1.4601939846043894
1.4448659420724324
1.4178943151856627
1.3423633180305428
1.3425591682631157
1.3403819458317725
1.4249264457433357
1.3035320118494913
1.5546414898537029
1.113438757571128
1.1832993145437443
1.222148385263973
1.3075690153215191
1.3833805921315903
1.4170533494566318
1.2561036362638818
1.114089206727819
1.0093110745007328
0.9800004050167708
1.0340799934592488
1.1411348056814712
1.2604741679615223
1.3232516095869584
1.3294561483805853
1.3270698067845585
1.328024346358191
1.33916212528973
1.360295854544838
1.3945780024029064
1.4272730207855198
1.4554158156066686
1.4778312618533513
1.4949983937999667
1.5069188730637098
1.5150242496850972
1.5193151480508507
1.5212221727982873
1.5202686636058103
1.5159777937018033
1.509302854026962
1.4918842634511924
1.4619380118217413
1.4248901714915738
1.3536514901630263
1.3472339586722906
1.3406736088623659
1.3655898403065745
1.3734443478767835
1.6469792782437338
1.2008283052997322
1.3032340643505937
1.2812217250827573
1.3368160334482369
1.416777943699968
1.3484387087760579
1.2260005724877405
1.0833595108014484
0.9793164306420081
0.9605107659400548
1.034231592883033
1.1644746185772838
1.308150784176477
1.3623850810941895
1.373360275045806
1.3738374442020962
1.3795633870165573
1.3976944556996693
1.423933744284589
1.4520770825079725
1.4792619286219575
1.5026276102593334
1.5202686636058103
1.5321870667564323
1.539814310582124
1.543627773409324
1.5450577943652875
1.5441044487395885
1.5407676862950375
1.5345706257179004
1.5255128850605435
1.5145474753181205
1.4974114647337886
1.4525939861579031
1.3904503680574551
1.361134940326022
1.3401375500846848
1.3125511311728715
1.4184240947232802
1.7875845174411362
1.5739556121914926
1.5157051939754502
1.399375636524764
1.377785777662438
1.366286039575242
1.2931626423079987
1.150154759164805
1.0006545839562255
0.9197911800673151
0.9429118566997227
1.0628942904546195
1.2339371130583245
1.3728831047799581
1.413438474110862
1.4253648704060822
1.4296581800438242
1.4396754963397
1.459708373941028
1.4835538506087411
1.5069188730637098
1.5274198265148746
1.5426744177227474
1.5531609592295645
1.559357163781983
1.5622168518486423
1.5626934604268148
1.5612636294567963
1.5584039205279419
1.5541142403938455
1.5483944510031782
1.5393376202320452
1.528850015638979
1.5169313314175872
1.5031044233716533
1.4883225138965452
1.4785826324384
1.45115901535764
1.372431153939714
1.2863011532128439
1.9966582524839913
1.8491781247418941
1.6880035968422016
1.5450171946535616
1.4532939680031356
1.3807795245054515
1.1831872496481763
0.9625773242720059
0.832557002887057
0.8355368618899237
0.9566345970377582
1.1645056390157695
1.3595218926255517
1.4382444863434014
1.4673393117521703
1.479738814652817
1.4883225138965452
1.5007203425474807
1.5178848628187822
1.5355240378169692
1.551254376377112
1.5631700672574378
1.5688070939611818
1.564540943075062
1.559360992247915
1.5525960576287916
1.5449252331408525
1.5359321162847321
1.5257722815674724
1.5143879055408906
1.5012912797944022
1.4864336791917803
1.4724858609211524
1.4557028861198038
1.435781294024201
1.4180893702371036
1.406757876333892
1.4021492432385594
1.392331474000968
1.3610338800133588
-1.66627228021679
-0.764868951989426
-0.21070262169237267
-0.013295119299172634
0.13329972352083755
0.32367300532256676
0.5699939957547201
0.8507126318841193
1.1482150501874315
1.3599990933833148
1.4582775335377822
1.4755403854174889
1.4846772753333177
1.4933698230964003
1.5041183120216663
1.5169629079508231
1.5293176045275487
1.5377186867640036
1.5419217127372327
1.542640170375371
1.5399132653051888
1.535300251639732
1.5286978138904967
1.5213774084230767
1.5128487458224922
1.503849908944785
1.495355124829473
1.4875246552646415
1.4818683808945778
1.4780631875337722
1.474806588065628
1.4729767676370733
1.4710692216700103
1.4718195995602668
1.4818260345302086
1.5186436441881976
1.585953122516406
1.433715074032713
-1.6775808688967764
-0.5938278441467657
-0.015617666249904823
0.3051786273843811
0.519013449307165
0.7816791603338447
1.056816035930305
1.286021055630995
1.3776437255587695
1.422325211764291
1.4509859183139324
1.4675692069797093
1.478960235792251
1.4880791391101174
1.4962267866091568
1.5041745399214856
1.5102786427835546
1.5153543380717263
1.5177168838525898
1.518327923514609
1.517284211943205
1.5147183762723333
1.5117515544103064
1.508545470772765
1.5047755745303883
1.5020981030749658
1.4992594080922363
1.4982010532360819
1.4983907282340692
1.5010858217631429
1.5078911590727313
1.5189973783675768
1.5317463322051392
1.5416063608803057
1.552312624162421
1.5875006832168148
1.535302672778326
1.4766621952415244
-1.1317869237698297
-1.1308052603383392
-1.0072157263841426
-0.20507085488899626
0.38073729177791343
0.7975279274373263
1.0950439665677123
1.2414714015343118
1.329912884618697
1.3834681269894218
1.4179186682240688
1.4417905960093564
1.4567373591656172
1.4656817213075763
1.4708484395162957
1.474431063822565
1.4762870448325722
1.4762609240633453
1.4746732206777604
1.4723870771880618
1.4693863873105146
1.4662308457000088
1.4635829133972005
1.4610209948151165
1.4591743686726657
1.4582160003248301
1.4584002234027995
1.4600935697327893
1.4638188855567933
1.4703136150423357
1.4796723003840142
1.493965828655676
1.517713019966124
1.5582030209698765
1.6165371487729336
1.6227301653261592
1.5946976858580713
1.5355060991645741
1.4840228791720826
1.4969629737106243
)
;

boundaryField
{
    ".*"
    {
        type            zeroGradient;
    }
}


// ************************************************************************* //
