/*--------------------------------*- C++ -*----------------------------------*=========                 |
  \      /  F ield         | OpenFOAM: The Open Source CFD Toolbox
   \    /   O peration     | Website:  https://openfoam.org
    \  /    A nd           | Version:  6
     \/     M anipulation  |
\*---------------------------------------------------------------------------*/
FoamFile
{
    version     2.0;
    format      ascii;
    class       volScalarField;
    location    "530";
    object      PPD;
}
// * * * * * * * * * * * * * * * * * * * * * * * * * * * * * * * * * * * * * //

dimensions      [0 0 0 0 0 0 0];

internalField   nonuniform List<scalar> 
458
(
41.518947883473686
29.53905460832361
28.061643020239316
26.81106534936403
26.050704508235313
25.690714531176624
25.800747797046526
26.40622987119059
27.669381520007917
29.81099999087229
33.099805003761205
36.493157419692444
37.27754704541716
37.684176665414746
38.309334569545356
44.31864203876442
43.61282482767192
43.41171954716314
43.76381888011715
44.01578450054163
44.21762991392991
43.980669826143284
43.777138809523876
43.82692651579746
43.95076633966559
44.08299021048158
44.279672368183995
44.509793749837954
44.87555276792541
45.44960750856132
45.94244959996314
46.1718703908834
46.938331633150476
38.06973755000162
30.08341813668487
29.514584647570757
28.248044807349473
27.515389163776675
27.153820764584296
27.22774629428082
27.572550768494708
28.202711744410863
29.30119597157909
31.139356941494313
34.0383217784474
37.11061024493501
37.66021019391918
37.932797415518564
35.83441086178391
35.87497009662667
37.0042787079588
41.91421462621451
42.910084490451
42.910084490451
43.311262498003124
43.45130353188995
43.43442185024133
43.43812377466045
43.522679681575184
43.5605001513655
43.599578006414426
43.623049233234426
43.69071790116224
43.77452059412877
43.939081366082874
44.393876619190195
44.84990802445737
45.20494564664685
44.37071447009278
39.683970274542425
29.68058288808328
31.005701977663165
30.317486772721352
30.01292033122992
29.852322068963602
29.85088637004384
29.68811403117354
29.07297632500199
28.551530299982616
29.05474814333371
31.30234060592683
35.713166611192946
37.99626984744672
38.309334569545356
38.45414923318489
38.43907553844776
37.50444378175733
37.3195032658691
40.530358791491274
40.99741995605241
41.45627356877993
42.04278110289914
42.260113428936606
43.44566930024203
44.21762991392991
44.242877396370474
44.242877396370474
44.268128583903405
44.29338346765957
44.29338346765957
44.343904288329284
44.49555453520959
44.6726442200997
44.3026023688097
40.53290296128332
43.541584454169914
29.377233385685642
32.12880729415592
32.62540599167433
33.46560635929541
34.0223094466983
34.11895938290834
32.930784076110584
30.257843871392126
27.867486571340038
27.355346021537557
29.418858741003746
33.73229138337675
38.32245857854479
39.01112900429255
39.08399258903662
37.682543612894335
36.476950031389975
34.029604202476904
37.28464723146756
39.10150974038902
40.459513713596756
42.049637343030106
43.86800732668549
45.30548532746601
44.98130808654108
44.708938693931636
44.6531438408418
44.72285688277723
44.88807088921156
45.24135975784887
45.972177256695474
47.219372735220176
47.160870956516916
46.37600518253641
43.24635041989578
38.28747536068843
48.565828199482716
29.775771589924048
32.95673497026175
34.760564035316946
37.511705806793344
39.88972131325628
40.346025089337395
36.60021663151475
31.24408074859828
27.246224917810437
26.110986501748187
28.255362326422357
32.59291795679434
37.61832436644397
40.011081087738674
40.10910714495509
39.436858859275254
38.00317103250804
37.942887664137125
38.774787199964685
40.38390878267288
42.50520510774833
44.714523261301366
46.89630822188334
48.42690410098986
49.06517940398767
49.146883475926046
49.13326168621671
49.04840854088358
48.89586219904165
48.789526713730375
48.75553501378958
48.73632905191536
47.909638489394
46.46128998298753
42.4611529735378
42.47139831094482
42.35754473720578
46.83805981949847
40.44509056082209
53.866312393578525
31.128132986651877
34.43149972295576
36.332550324563826
40.65320791987456
44.62202926551084
46.41627513937032
38.02824081537036
31.158163778106186
26.511052855150922
25.283109762027067
27.573936157705162
32.41918138506385
38.24867766819075
41.4650100779921
41.78760261481414
41.66343666630549
41.71308934369666
42.29379665755519
43.40222060330398
45.216828905139025
46.96392411797024
48.47837560521149
49.69027028282609
50.62111376948587
51.26857658515464
51.70924581409054
51.94265024064416
52.046407080784775
51.99452707938648
51.761107401123176
51.39815509179792
50.4521084360436
48.83053567977001
46.83611469734746
43.05284447064834
42.71616351641145
42.37279137938408
43.681154401125575
44.09589319904051
58.88695882280029
35.28390221424368
40.429744846838275
39.30155973226386
42.171270853723364
46.40153535958705
42.77930945725597
36.52337493033079
29.755040856090133
25.254847596338863
24.48488802295354
27.580511521899126
33.52629310402948
40.68322891462831
43.51224050899611
44.091448388271935
44.11667721235972
44.41971301887389
45.38271325780816
46.78483445387765
48.29826359835157
49.76776318061012
51.03540404415527
51.99452707938648
52.643227674484564
53.05858067218758
53.266294885966204
53.34419264678737
53.292260538814176
53.11050724434688
52.773012865680855
52.27990401094186
51.68331637126505
50.75211387816235
48.32614130828063
44.9973459926837
43.44639805948392
42.344770252823295
40.910537269587266
46.48965253944823
66.36660301243586
54.918620657050646
51.746280780792326
45.472259851800516
44.325578279965455
43.71787281359014
39.912185260001166
32.845004020182955
26.144998623210356
22.865344820968275
23.776861428239158
28.838721904381032
36.91779699095142
44.06622332238548
46.2228861874942
46.861570616203934
47.091927210162
47.63025701830479
48.71010301492618
50.0003306304559
51.26857658515464
52.38369847497996
53.21436443490362
53.78564746168892
54.12324720511217
54.27906013032204
54.30502856098624
54.227122892237325
54.071308925155584
53.83758567786693
53.52596234811384
53.032617928467204
52.461551033004675
51.81297252148457
51.061307561063074
50.25888808436373
49.73096673652488
48.24875695229026
44.0423349803963
39.56090223318403
76.59942697691281
69.519991765376
61.09894509383785
53.34198100845851
48.36389709418845
44.48414419383931
34.42607934371115
24.568825986907825
19.62172789162588
19.727338519832244
24.327899290976916
33.527775868204884
43.36148299881897
47.55328383816917
49.12247206476284
49.793597487069064
50.25888808436373
50.93180177576743
51.86484109290102
52.82493037345628
53.681771970331866
54.330996851962034
54.638127560677816
54.40568973589695
54.12345580266549
53.754869878533846
53.33697148439335
52.84715272725241
52.294022209651615
51.67463836862329
50.962812792889
50.156456123069596
49.40087675719857
48.49386712254116
47.42084461168665
46.47173212686
45.86595253506018
45.62008375740838
45.09733982358485
43.441076621036125
59.92941754528681
17.32357030057186
5.9207921606246
5.003659053427768
5.368113150991732
7.178240592779716
11.80532723080377
20.270941080011625
32.753214162607165
43.38659927138114
48.632841572031374
49.566216946166634
50.06122832951715
50.53272276687201
51.11639255062032
51.8146901074715
52.48700566977586
52.94444692322274
53.17336478070568
53.21249896876154
53.063970257894766
52.81274402568777
52.453265606831195
52.05485370706098
51.59093891795727
51.10180955909745
50.64047763321542
50.21561700945613
49.908983296814064
49.702831596348645
49.526489881502464
49.42744420178069
49.3242206909494
49.36482246356984
49.906688522326235
51.906118641836734
55.57209373608673
47.309803434843566
60.53869753242176
12.39195820462821
5.005049145139878
6.935535736219549
10.633201517743515
17.87619189584923
28.569428231276603
39.546585423806114
44.31805802704994
46.69861657402755
48.23942367741891
49.134903493876834
49.751420499553085
50.24568843008955
50.687795967014786
51.119447598164776
51.45120103702566
51.72719829890418
51.85570338844735
51.88894321976673
51.83216747523457
51.69261072994879
51.531280258034535
51.356985336499775
51.152104850589495
51.00663931905427
50.852458168505265
50.79498647614153
50.80528588582272
50.9516529257546
51.321420622146356
51.925362499736714
52.61923126485938
53.15618794449869
53.73942764086251
55.656363105121024
52.812875868912634
49.62695893555846
31.98062961284566
31.934739474700137
26.422188247545634
5.872140385272004
8.018639144133033
18.408210111549124
30.284757205726407
37.293789689524715
41.81138061374636
44.62667145686726
46.462593679716726
47.744068880541114
48.54969825529182
49.032852719233915
49.3122754134684
49.50616104698223
49.606644770533585
49.605230388373116
49.519269967995356
49.395530908129324
49.23318241981022
49.06253901376611
48.91941358306754
48.78099790222265
48.681265929989685
48.629519384589955
48.6394657242518
48.7309058341167
48.93216573778017
49.283340780528704
49.78999411106045
50.565069150337926
51.85549320246374
54.06036276223779
57.235926770161896
57.57230756281531
56.048173681971775
52.823953513938484
50.025754243570084
50.727763645572686
)
;

boundaryField
{
    ".*"
    {
        type            zeroGradient;
    }
}


// ************************************************************************* //
