/*--------------------------------*- C++ -*----------------------------------*\
  =========                 |
  \\      /  F ield         | OpenFOAM: The Open Source CFD Toolbox
   \\    /   O peration     | Website:  https://openfoam.org
    \\  /    A nd           | Version:  6
     \\/     M anipulation  |
\*---------------------------------------------------------------------------*/
FoamFile
{
    version     2.0;
    format      ascii;
    class       surfaceScalarField;
    location    "4870";
    object      phi;
}
// * * * * * * * * * * * * * * * * * * * * * * * * * * * * * * * * * * * * * //

dimensions      [1 0 -1 0 0 0 0];

internalField   nonuniform List<scalar> 
850
(
-0.00305311
0.00311357
-0.00414581
0.0010927
-0.00501489
0.000869083
-0.00570374
0.000688848
-0.00617581
0.000472073
-0.00639705
0.000221238
-0.00632783
-6.922e-05
-0.005924
-0.00040383
-0.00517374
-0.000750255
-0.00412858
-0.00104517
-0.00290027
-0.0012283
-0.00164148
-0.0012588
-0.000538987
-0.00110249
0.000135918
-0.000674906
0.000138269
-0.000922416
0.000926072
-0.000690017
-0.000232399
-6.078e-05
-0.000629237
0.000542661
-0.000603441
0.00100184
-0.000459178
0.00125841
-0.000256572
0.00136652
-0.000108114
0.00141934
-5.28158e-05
0.00144969
-3.03526e-05
0.00146476
-1.50653e-05
0.00146837
-3.61045e-06
0.00146137
6.99989e-06
0.00143811
2.3254e-05
0.00137959
5.85214e-05
0.00125367
0.00012592
0.00105009
0.000203582
0.000793444
0.000256647
0.000798283
-0.00220745
0.00548441
-0.00329509
0.00218035
-0.00420831
0.0017823
-0.00490608
0.00138661
-0.00538758
0.00095358
-0.00563052
0.000464173
-0.00559448
-0.000105254
-0.00524028
-0.000758036
-0.00456676
-0.00142377
-0.00364271
-0.00196922
-0.00258802
-0.00228299
-0.00154149
-0.00230533
-0.000628656
-0.00201532
9.2938e-05
-0.0013965
0.000872749
-0.000641542
0.0011486
-0.000272063
0.000956834
0.000196122
0.000969522
4.15331e-05
0.00089554
0.000421791
-0.000612657
0.000786667
-0.000994112
0.00109963
-0.000916407
0.00135048
-0.000710027
0.00140695
-0.000313038
0.00141508
-0.00011625
0.00142581
-6.35403e-05
0.00143479
-3.93379e-05
0.00144006
-2.03329e-05
0.00144222
-5.77373e-06
0.00144183
7.39149e-06
0.00143635
2.87328e-05
0.0013999
9.4978e-05
0.00124702
0.0002788
0.000978555
0.000472045
0.000644612
0.00059059
0.00145527
-0.00156233
0.00729717
-0.00251037
0.00312838
-0.003343
0.00261493
-0.00396556
0.00200918
-0.00441313
0.00140115
-0.00466165
0.00071269
-0.00465598
-0.000110925
-0.00433468
-0.00107933
-0.00371313
-0.00204532
-0.0028887
-0.00279365
-0.00198659
-0.00318511
-0.00112266
-0.00316926
-0.000373457
-0.00276452
0.00024054
-0.0020105
0.000752037
-0.00115304
0.000899385
-0.000419411
0.000707495
0.000388012
0.00168828
0.00143723
-0.000527859
0.00163273
-0.000808154
0.00157513
-0.000936513
0.00160842
-0.000949693
0.00181168
-0.000913292
0.0014988
0.0013827
0.00131932
0.00128013
0.00125995
0.00125433
0.00126188
0.00129077
0.0013859
0.00115887
0.000505827
0.00086999
0.000760925
0.000498892
0.000961688
0.00197274
-0.00109547
0.00871729
-0.00185227
0.00388519
-0.0024366
0.00319925
-0.00288268
0.00245526
-0.00322781
0.00174628
-0.00344068
0.000925553
-0.00344208
-0.000109522
-0.00312366
-0.00139775
-0.00254779
-0.00262119
-0.00184607
-0.00349537
-0.00113041
-0.00390076
-0.000480692
-0.00381898
6.578e-05
-0.00331099
0.000526375
-0.00247109
0.000902473
-0.00152914
0.00111954
-0.000636482
0.00130373
0.000203831
0.00225748
0.000734524
0.00216769
0.000101735
0.0019949
-0.000355074
0.00190893
-0.000722186
0.00179814
-0.000825714
0.00166594
-0.000817494
0.00143498
-0.000682332
0.00175859
-0.000323764
0.00193626
-0.000177826
0.00206719
-0.000131086
0.00216799
-0.000100948
0.00222822
-6.03865e-05
0.00222567
2.39947e-06
0.00213278
9.27347e-05
0.00191323
0.0002194
0.00150707
0.000406004
0.00126968
0.000743217
0.000902424
0.00112818
0.000384084
0.00148003
0.00238046
-0.000756069
0.00986108
-0.00132705
0.00445616
-0.00150963
0.00338183
-0.00168823
0.00263386
-0.00185321
0.00191127
-0.00196225
0.00103458
-0.00191378
-0.000157986
-0.00155675
-0.00175478
-0.00105573
-0.00312221
-0.00053782
-0.00401328
-7.3326e-05
-0.00436526
0.000305327
-0.00419763
0.000596496
-0.00360216
0.000849378
-0.00272397
0.00106872
-0.00174848
0.00127613
-0.000843887
0.0015868
-0.00010684
0.00203035
0.000290972
0.00206422
6.78625e-05
0.00199691
-0.00028776
0.00181241
-0.000537688
0.00162454
-0.00063784
0.00144745
-0.000640407
0.00131877
-0.000553656
0.00137754
-0.000382526
0.0014656
-0.000265892
0.00155008
-0.000215564
0.00163157
-0.000182442
0.00170171
-0.000130527
0.00174075
-3.66355e-05
0.00172469
0.000108798
0.00163842
0.000305662
0.00148619
0.000558239
0.0013301
0.0008993
0.00115113
0.00130716
0.000804093
0.00182706
0.00101982
0.00216473
-0.00109517
0.00213611
-0.00179343
0.000717877
-0.00172066
-0.000638709
0.0109406
-0.00101437
0.00483183
-0.000633436
0.0030009
-0.000448702
0.00244913
-0.000384089
0.00184666
-0.000303738
0.000954233
-5.19541e-05
-0.00040977
0.000334451
-0.00214119
0.000692134
-0.0034799
0.000951983
-0.00427313
0.00109501
-0.00450828
0.00114534
-0.00424796
0.00113924
-0.00359607
0.00111605
-0.00270079
0.00110059
-0.00173302
0.00113276
-0.000876058
0.00126983
-0.000243905
0.0014846
7.62023e-05
0.00153586
1.66034e-05
0.00143788
-0.000189785
0.00126351
-0.000363312
0.00108384
-0.000458178
0.000926546
-0.00048311
0.000821527
-0.000448637
0.000810734
-0.000371733
0.000860084
-0.000315242
0.000936257
-0.000291737
0.00102701
-0.000273192
0.00112584
-0.000229361
0.00122285
-0.000133642
0.00129576
3.58857e-05
0.00133282
0.000268602
0.00134812
0.00054294
0.00138214
0.000865281
0.00148259
0.0012067
0.00168608
0.00162358
0.00203682
0.00181399
0.00233695
0.00183598
0.00182999
0.00122484
0.000174762
-0.000763865
0.0121917
-0.00062149
0.00468945
0.000492268
0.00188714
0.000960619
0.00198078
0.00121798
0.0015893
0.00159947
0.000572736
0.00210275
-0.000913047
0.00243991
-0.00247835
0.00257371
-0.0036137
0.00250617
-0.00420558
0.00227294
-0.00427506
0.00193599
-0.00391101
0.00155907
-0.00321914
0.00120033
-0.00234205
0.000896613
-0.0014293
0.000705084
-0.000684529
0.000653493
-0.000192314
0.000704653
2.50421e-05
0.000712731
8.52551e-06
0.000636468
-0.000113522
0.000509143
-0.000235988
0.000368848
-0.000317883
0.000242951
-0.000357213
0.000156844
-0.00036253
0.000133886
-0.000348775
0.000162895
-0.000344251
0.000222525
-0.000351368
0.000302983
-0.000353649
0.000405271
-0.000331649
0.000534361
-0.000262732
0.000687267
-0.00011702
0.00084521
0.00011066
0.00100721
0.000380936
0.00120906
0.000663432
0.00148366
0.00093211
0.00188404
0.0012232
0.00241744
0.00128059
0.00318504
0.00106838
0.00336162
0.00104826
0.00360519
0.00273593
0.00999911
0.0033917
0.00403368
0.00344935
0.00182949
0.00353503
0.0018951
0.0037463
0.00137803
0.0042222
9.68307e-05
0.00469334
-0.00138418
0.00478836
-0.00257337
0.00451403
-0.00333937
0.00396087
-0.00365243
0.00322972
-0.0035439
0.00242473
-0.00310602
0.00162792
-0.00242233
0.000922022
-0.00163616
0.00034737
-0.000854648
-2.50706e-06
-0.000334652
-0.00014082
-5.40013e-05
-0.000155249
3.94715e-05
-0.000163104
1.638e-05
-0.000215234
-6.13911e-05
-0.000306054
-0.000145169
-0.00041228
-0.000211656
-0.000511599
-0.000257894
-0.000585869
-0.00028826
-0.000623867
-0.000310777
-0.00063308
-0.000335038
-0.000625256
-0.000359192
-0.000604694
-0.000374211
-0.000566415
-0.000369929
-0.000494198
-0.00033495
-0.000356734
-0.000254484
-0.000146599
-9.94755e-05
0.000104173
0.000130164
0.000388871
0.000378735
0.000707314
0.000613668
0.00108959
0.000840923
0.00150689
0.000863286
0.00189865
0.000676623
0.00120605
0.00174085
0.00509766
0.010598
0.0146275
0.0125614
0.00389562
0.0112292
0.00322728
0.0103407
0.00226653
0.00953388
0.000903671
0.00853144
-0.000381743
0.00735251
-0.00139444
0.00607923
-0.00206609
0.00476041
-0.00233361
0.00342922
-0.00221271
0.0021642
-0.001841
0.0010094
-0.00126752
5.6378e-05
-0.000683138
-0.000566032
-0.000232238
-0.00085962
-4.10642e-05
-0.000956756
4.31347e-05
-0.000976416
5.91315e-05
-0.000991807
3.17714e-05
-0.00103524
-1.79553e-05
-0.00110783
-7.25859e-05
-0.00119686
-0.000122621
-0.00128867
-0.000166084
-0.0013743
-0.000202633
-0.0014515
-0.000233579
-0.00152704
-0.000259495
-0.0016102
-0.000276029
-0.00170952
-0.00027489
-0.00183466
-0.000244789
-0.00199852
-0.000171093
-0.00221652
-3.64862e-05
-0.00248302
0.000167026
-0.00280699
0.000454134
-0.00327095
0.000842701
-0.00398816
0.00133087
-0.0050297
0.00188246
-0.00651691
0.0023505
-0.00825536
0.00241507
-0.00777181
0.0012573
-0.00235714
0.00895045
0.00560356
0.00747188
0.00470585
0.00708
0.0026584
0.00672917
0.00125451
0.00611918
0.000228247
0.00524676
-0.000522023
0.00417817
-0.000997498
0.00298278
-0.00113822
0.00169122
-0.000921144
0.000430371
-0.000580157
-0.000609498
-0.000227655
-0.00127071
-2.19229e-05
-0.0015632
6.02442e-05
-0.00167787
7.36095e-05
-0.00170784
7.31045e-05
-0.00171361
6.49033e-05
-0.00172864
4.6797e-05
-0.00176745
2.086e-05
-0.00183138
-8.65939e-06
-0.00191293
-4.107e-05
-0.00200443
-7.45789e-05
-0.00210374
-0.000103324
-0.0022122
-0.000125126
-0.00233322
-0.00013847
-0.00246896
-0.000140295
-0.00261827
-0.000125578
-0.00277574
-8.73219e-05
-0.00292901
-1.7818e-05
-0.00306256
9.70663e-05
-0.00317484
0.000279302
-0.00327578
0.000555077
-0.00337729
0.000944209
-0.00348611
0.00143969
-0.00356962
0.00196597
-0.003568
0.00234888
-0.00331005
0.00215712
-0.00195006
-0.000102684
-0.00422388
-0.000826091
0.00648296
0.000742117
0.00313764
0.00140783
0.00199268
0.00164675
0.00101559
0.00158294
0.000292065
0.00121193
-0.000151013
0.000529717
-0.000315287
-0.000363704
-0.000244802
-0.00124103
-4.38155e-05
-0.00188635
6.51584e-05
-0.0022271
0.000113099
-0.00235807
0.000109045
-0.00238117
8.33426e-05
-0.00237094
6.33805e-05
-0.00234987
5.20364e-05
-0.00232931
4.43396e-05
-0.00231832
3.58091e-05
-0.0023222
2.47405e-05
-0.00234157
1.07142e-05
-0.00237542
-7.22747e-06
-0.00242401
-2.59885e-05
-0.00248536
-4.19714e-05
-0.00255738
-5.31085e-05
-0.00263754
-5.83092e-05
-0.00272178
-5.60517e-05
-0.00280352
-4.3835e-05
-0.0028733
-1.75479e-05
-0.00291855
2.74302e-05
-0.00291853
9.70493e-05
-0.00284797
0.000208741
-0.00267232
0.00037943
-0.00236026
0.000632149
-0.00190395
0.000983385
-0.00128938
0.0013514
-0.000299695
0.0013592
0.00114765
0.000709773
0.00164262
-0.000597656
-0.00248957
-0.0120486
-0.0155771
-0.00905364
-0.00588858
-0.00387363
-0.00283944
-0.00253234
-0.00267135
-0.00297671
-0.00321301
-0.00324916
-0.00317671
-0.00305648
-0.00294032
-0.00284985
-0.00277933
-0.00272011
-0.00266855
-0.00262548
-0.00259343
-0.0025754
-0.00257535
-0.00259415
-0.00262904
-0.00267519
-0.00272669
-0.0027761
-0.00281346
-0.00282472
-0.00279121
-0.0026883
-0.00247394
-0.00208913
-0.00145188
-0.000463682
0.000892143
0.00225548
0.0029693
0.00237583
)
;

boundaryField
{
    floor
    {
        type            calculated;
        value           nonuniform List<scalar> 
36
(
0
0
0
0
0
0
0
0
0
0
0
0
0
0
0
0
0
0
0
-4.83914e-06
-1.2378e-05
-1.85697e-05
-2.36405e-05
-2.11161e-05
-1.96191e-05
-1.84535e-05
-2.35097e-06
-3.78399e-06
-4.35946e-06
-5.04476e-06
-3.65656e-06
-7.64391e-06
-1.10004e-05
-1.12625e-05
-1.38364e-05
-1.19396e-05
)
;
    }
    ceiling
    {
        type            calculated;
        value           nonuniform List<scalar> 
43
(
-4.18441e-05
-4.11788e-05
-4.04782e-05
-2.74141e-05
-2.22702e-05
-1.86048e-05
-1.50288e-05
-1.20046e-05
-9.92946e-06
-8.50217e-06
-7.66633e-06
-7.28561e-06
-7.13787e-06
-7.11114e-06
-7.12493e-06
-7.14623e-06
-7.17742e-06
-7.22024e-06
-7.26654e-06
-7.30713e-06
-7.31473e-06
-7.27605e-06
-7.19257e-06
-7.08104e-06
-6.95221e-06
-6.80908e-06
-6.64844e-06
-6.47516e-06
-6.28364e-06
-6.07851e-06
-5.85889e-06
-5.62502e-06
-5.37641e-06
-5.10577e-06
-4.81116e-06
-4.42478e-06
-4.13946e-06
-4.04923e-06
-4.18127e-06
-3.60358e-06
6.94074e-06
4.17886e-06
-5.3314e-05
)
;
    }
    sWall
    {
        type            calculated;
        value           uniform -0.0002414;
    }
    nWall
    {
        type            calculated;
        value           nonuniform List<scalar> 6(-5.43171e-05 -6.54339e-05 -6.88139e-05 -8.33271e-05 -9.16861e-05 -0.00011014);
    }
    sideWalls
    {
        type            empty;
        value           nonuniform 0();
    }
    glass1
    {
        type            calculated;
        value           nonuniform List<scalar> 9(-6.04583e-05 -0.000163401 -0.000250424 -0.000324643 -0.000387723 -0.000440785 -0.00048727 -0.00054333 -0.000605862);
    }
    glass2
    {
        type            calculated;
        value           nonuniform List<scalar> 2(-0.000286411 -0.000317012);
    }
    sun
    {
        type            calculated;
        value           uniform 0;
    }
    Table_master
    {
        type            calculated;
        value           nonuniform List<scalar> 9(-1.5364e-07 -1.53789e-07 -1.53839e-07 -1.53869e-07 -1.53889e-07 -1.53902e-07 -1.53906e-07 -1.539e-07 -1.5387e-07);
    }
    Table_slave
    {
        type            calculated;
        value           nonuniform List<scalar> 9(1.5353e-07 1.53515e-07 1.53468e-07 1.53431e-07 1.53408e-07 1.53408e-07 1.53413e-07 1.53451e-07 1.53535e-07);
    }
    inlet
    {
        type            calculated;
        value           uniform -0.0106584;
    }
    outlet
    {
        type            calculated;
        value           nonuniform List<scalar> 2(0.0123318 0.00356968);
    }
}


// ************************************************************************* //
