/*--------------------------------*- C++ -*----------------------------------*\
  =========                 |
  \\      /  F ield         | OpenFOAM: The Open Source CFD Toolbox
   \\    /   O peration     | Website:  https://openfoam.org
    \\  /    A nd           | Version:  6
     \\/     M anipulation  |
\*---------------------------------------------------------------------------*/
FoamFile
{
    version     2.0;
    format      ascii;
    class       volScalarField;
    location    "8300";
    object      alphat;
}
// * * * * * * * * * * * * * * * * * * * * * * * * * * * * * * * * * * * * * //

dimensions      [1 -1 -1 0 0 0 0];

internalField   nonuniform List<scalar> 
778
(
0.00104099
0.00111056
0.00110659
0.00115465
0.0011987
0.0012387
0.00127593
0.00131182
0.00134795
0.00138634
0.00142294
0.0014577
0.00149194
0.00152877
0.00156721
0.000736772
0.00105533
0.00106379
0.00103798
0.000994863
0.000937334
0.000880044
0.000827267
0.000779665
0.000736965
0.000698906
0.000664719
0.000633577
0.000604514
0.000576232
0.000546663
0.000522121
0.000472596
0.00152465
0.00300732
0.00263929
0.00304635
0.0033418
0.00365505
0.00396754
0.0042555
0.00448725
0.00462209
0.00470137
0.00466866
0.00443581
0.00385907
0.00281856
0.00171596
0.00163609
0.00156613
0.00131889
0.00224632
0.00311304
0.00362457
0.00364816
0.00287952
0.00246263
0.00217361
0.00195437
0.00178009
0.00163145
0.00149999
0.00137762
0.0012579
0.00115044
0.00105777
0.00119178
0.000599197
0.00193412
0.00419882
0.0031135
0.00445318
0.0049759
0.00541831
0.00582011
0.0061737
0.00647317
0.00670784
0.00693528
0.00717459
0.00739455
0.00752559
0.00743914
0.00681203
0.00498293
0.00192124
0.00166382
0.00355965
0.00496741
0.00563274
0.00512223
0.00135151
0.00117508
0.00103901
0.000932576
0.000847913
0.000779596
0.000723879
0.000678555
0.00064321
0.000707196
0.00083197
0.00131814
0.000681715
0.00232906
0.0056584
0.00297923
0.00500689
0.00578049
0.00619443
0.00649877
0.00672388
0.00689183
0.00702789
0.00722153
0.00754877
0.00802637
0.00862727
0.00923192
0.00953092
0.0089521
0.00668337
0.00191364
0.00442913
0.00659268
0.00769239
0.00796341
0.0067981
0.00153917
0.00139989
0.00129208
0.00120241
0.00112602
0.00105744
0.000992801
0.000928606
0.000859258
0.000802795
0.000832387
0.00142797
0.000750562
0.00271831
0.00749046
0.00300564
0.00475957
0.0059488
0.00630152
0.00642941
0.00643414
0.00637006
0.00631333
0.00639434
0.00671214
0.00729545
0.0081219
0.00908117
0.0099659
0.010528
0.0105228
0.00944454
0.00961031
0.00983217
0.00986406
0.00966361
0.00904475
0.00719765
0.00621694
0.00554519
0.00499948
0.00446425
0.00394581
0.00343865
0.00293226
0.00241223
0.00185275
0.00141351
0.00141333
0.00111784
0.000895496
0.0011926
0.00113754
0.00310124
0.00954065
0.00353833
0.00401358
0.00569951
0.00609066
0.00605891
0.00584041
0.00552832
0.00527105
0.00526527
0.00559808
0.00626236
0.00722019
0.00834207
0.00946426
0.0104195
0.0110306
0.011143
0.0110324
0.0108379
0.010561
0.0102043
0.00974991
0.00908687
0.00844812
0.00786823
0.00730763
0.0067023
0.00605601
0.0053659
0.00462622
0.00383234
0.00299002
0.00222684
0.00167185
0.00129823
0.00146535
0.00256122
0.00135783
0.00349202
0.0114359
0.00471497
0.00328801
0.00512119
0.00576098
0.00568924
0.00533572
0.00482337
0.00437302
0.00436017
0.00478036
0.00554047
0.00661101
0.00782965
0.00903718
0.0100772
0.0108227
0.0111664
0.0111413
0.0108977
0.0105277
0.0101035
0.00968001
0.00927027
0.00889424
0.00854095
0.00816369
0.00770788
0.0071594
0.00651032
0.00575772
0.0049046
0.0039723
0.00305978
0.00220914
0.00162643
0.00146015
0.00261123
0.00160561
0.00382777
0.0128686
0.00642771
0.00313054
0.00405699
0.00510763
0.00525328
0.00496245
0.00435763
0.00374468
0.00388365
0.00443945
0.00528974
0.00639293
0.00765898
0.0089229
0.0100014
0.010751
0.011092
0.0110486
0.0107335
0.010268
0.00976706
0.00932252
0.00897975
0.00873486
0.0085438
0.00833585
0.00804613
0.0076407
0.00710389
0.00643275
0.00563385
0.00473034
0.00378875
0.0028338
0.00197226
0.00133503
0.0038233
0.00212352
0.00392896
0.012173
0.00795054
0.00404679
0.00274939
0.00337042
0.00394462
0.00399237
0.00352493
0.0034254
0.00378109
0.00443479
0.00535488
0.00652587
0.00785367
0.00915663
0.0102305
0.010921
0.0111633
0.0109966
0.010539
0.00993884
0.00934319
0.00886779
0.00856602
0.00841805
0.0083511
0.00827134
0.0081047
0.00781171
0.00737692
0.00679896
0.00608535
0.00525438
0.00433949
0.00330685
0.00188561
0.00172372
0.00602848
0.00241144
0.00384946
0.00981044
0.00820754
0.00555297
0.00366737
0.00283944
0.00268994
0.00281713
0.00305326
0.00342962
0.00396431
0.00470076
0.00570303
0.00696764
0.00836924
0.00969075
0.0107071
0.0112648
0.0113209
0.0109435
0.0102816
0.00952058
0.0088412
0.00837548
0.00816212
0.00813772
0.0081847
0.0081843
0.00807657
0.00783944
0.00746577
0.00695547
0.00631258
0.00554149
0.00462079
0.00330369
0.00142092
0.00324979
0.00561483
0.00244701
0.00360579
0.00838392
0.00793371
0.00635263
0.00488943
0.00393606
0.00346443
0.00335769
0.00355283
0.00391264
0.00443624
0.00521527
0.0063248
0.00771419
0.00918886
0.0104818
0.0113546
0.0116742
0.0114395
0.0107671
0.00985792
0.00894842
0.00825667
0.00790903
0.00786952
0.00798531
0.00810202
0.00810432
0.00799064
0.00776124
0.00741207
0.00693847
0.00633232
0.00556686
0.00454168
0.00300878
0.00154963
0.00343326
0.00616822
0.00247009
0.00328312
0.00755931
0.00765237
0.00672323
0.00571992
0.00496415
0.00451884
0.00435898
0.00439903
0.00461694
0.00509923
0.00597228
0.00725873
0.00880085
0.0103077
0.0114681
0.0120571
0.0119952
0.011352
0.0103162
0.00916607
0.00820442
0.0076576
0.00754883
0.00764868
0.00780452
0.00790544
0.00787648
0.00774365
0.007511
0.00717205
0.00670997
0.00608371
0.00520262
0.00389937
0.00237981
0.00182141
0.00371992
0.0063353
0.00261352
0.00299367
0.00676272
0.00730709
0.0068681
0.00622431
0.00568313
0.00532293
0.00514683
0.00509515
0.0052825
0.00589693
0.00704124
0.00860188
0.0102734
0.0116804
0.0125126
0.0126137
0.0120014
0.0108526
0.00945245
0.00818755
0.00737227
0.00701374
0.00697887
0.00709739
0.00724551
0.00733246
0.00730069
0.00716241
0.0069235
0.00657312
0.00607196
0.00530859
0.00409595
0.00259521
0.00184705
0.00228107
0.00431469
0.00646187
0.00265459
0.00300412
0.00671304
0.00746592
0.00695068
0.00642959
0.00600269
0.00569483
0.00549602
0.00548974
0.00594434
0.00703006
0.0086548
0.0104877
0.0121005
0.0131167
0.0133191
0.0126935
0.0113941
0.00975239
0.00816159
0.00700409
0.00632303
0.006017
0.00596906
0.00606338
0.00619043
0.00626175
0.00622387
0.00606518
0.00579914
0.00541
0.00482816
0.00390089
0.00266072
0.00185615
0.00200672
0.00290741
0.00451423
0.006063
0.00248467
0.00271005
0.0028206
0.00416498
0.00489666
0.00512404
0.00512913
0.00508145
0.00517874
0.00581041
0.00715886
0.00906132
0.0111177
0.0128739
0.0139497
0.0141241
0.0133622
0.0118573
0.009905
0.00804434
0.00658473
0.00560939
0.00506435
0.00483599
0.0047927
0.00483004
0.0048667
0.00484227
0.00472827
0.00450317
0.00420128
0.00382966
0.00336146
0.00274862
0.00211397
0.00189317
0.00234655
0.00333325
0.00451303
0.0051466
0.00234191
0.000963528
0.00173663
0.00266499
0.00341169
0.00428014
0.00574913
0.00791211
0.0103175
0.0125119
0.0141533
0.015004
0.0149071
0.0138686
0.0120071
0.0098029
0.00772255
0.00607667
0.00498612
0.00440188
0.00413422
0.0040187
0.00395992
0.00390171
0.00380625
0.00365507
0.00345521
0.00323324
0.00301286
0.00281516
0.00263459
0.00245283
0.00228704
0.002287
0.00270348
0.00361194
0.00478548
0.00589804
0.00234083
0.00178745
0.0024703
0.0035954
0.00560295
0.00832179
0.0110431
0.013146
0.0146668
0.0155929
0.0158542
0.0153228
0.0138721
0.0117259
0.00930107
0.0070811
0.0054305
0.0044758
0.00403284
0.00384941
0.00377335
0.00373253
0.00368903
0.00362083
0.00352032
0.0033966
0.00327092
0.00316393
0.00308503
0.00303426
0.00300391
0.00299066
0.00301133
0.00312367
0.00345577
0.00420878
0.00565601
0.0064643
0.00254482
0.00323788
0.00787436
0.00727035
0.00650088
0.0082428
0.0109662
0.0132567
0.0148016
0.0156206
0.0158286
0.0155226
0.0146432
0.0131246
0.0110078
0.0085955
0.00642896
0.00498454
0.00427012
0.00398969
0.00390502
0.00389968
0.00391819
0.00392966
0.00391747
0.00387842
0.00382116
0.00376059
0.00371031
0.00367822
0.00366746
0.00367953
0.00372126
0.00380604
0.00395308
0.00420672
0.00465321
0.00545863
0.00723556
0.0073608
0.00263837
0.00309501
0.00598153
0.00772263
0.00988676
0.0109699
0.0120793
0.0127197
0.0128688
0.0126207
0.0120398
0.011144
0.00992733
0.00842376
0.00680429
0.00536154
0.0043777
0.00385335
0.00362937
0.00357316
0.00360858
0.00368886
0.00377987
0.00385691
0.00390668
0.00392831
0.00393002
0.00392256
0.00391383
0.00390883
0.00391479
0.00394724
0.00403178
0.00420085
0.00448252
0.00490574
0.00547735
0.00625117
0.00759779
0.00778149
0.00271994
0.0028949
0.00248122
0.00246896
0.00254119
0.00260085
0.00252373
0.00237448
0.00220108
0.0020272
0.00186028
0.00170074
0.00155011
0.00141655
0.00131465
0.00125649
0.00123204
0.00122943
0.00123918
0.00125515
0.00127369
0.00129266
0.00131098
0.00132839
0.00134534
0.00136288
0.00138251
0.00140605
0.00143581
0.00147479
0.00152685
0.00159603
0.00168504
0.00179348
0.00191779
0.00205409
0.00220234
0.00235884
0.00252311
0.0026837
0.00252541
)
;

boundaryField
{
    floor
    {
        type            compressible::alphatWallFunction;
        Prt             0.85;
        value           nonuniform List<scalar> 
36
(
0.000219868
0.000104475
0.00014993
0.000151113
0.000147499
0.00014144
0.000133308
0.000125151
0.000117582
0.000110705
0.000104494
9.89217e-05
9.3885e-05
8.92697e-05
8.49374e-05
8.06972e-05
7.62363e-05
7.25115e-05
6.49278e-05
6.49269e-05
8.4143e-05
9.63934e-05
0.000106476
0.000127359
0.000169009
0.000161389
0.000219865
0.000239665
0.000229056
0.000219718
0.000104474
0.000219716
0.00018632
0.000266681
0.000232738
0.000265686
)
;
    }
    ceiling
    {
        type            compressible::alphatWallFunction;
        Prt             0.85;
        value           nonuniform List<scalar> 
43
(
0.000391199
0.000338973
0.000337417
0.00034661
0.00035419
0.000344437
0.00032544
0.000303198
0.000280701
0.000258907
0.00023788
0.000217823
0.000199851
0.000185998
0.000178021
0.000174651
0.000174282
0.000175618
0.000177812
0.00018036
0.000182967
0.000185481
0.000187865
0.00019018
0.000192568
0.000195229
0.000198406
0.000202404
0.000207617
0.000214549
0.000223729
0.000235503
0.000249802
0.000266131
0.000283936
0.000303152
0.000323328
0.000344365
0.000364807
0.000344684
0.000368291
0.000382188
0.000248624
)
;
    }
    sWall
    {
        type            compressible::alphatWallFunction;
        Prt             0.85;
        value           nonuniform List<scalar> 9(0.000507603 0.000477877 0.0004382 0.000402272 0.000403564 0.000366716 0.000431969 0.000414304 0.000389448);
    }
    nWall
    {
        type            compressible::alphatWallFunction;
        Prt             0.85;
        value           nonuniform List<scalar> 
14
(
0.000160941
0.000191163
0.000224511
0.000334074
0.000337088
0.000355325
0.000360107
0.000338468
0.000320337
0.000320698
0.000346498
0.000358296
0.000368554
0.000343989
)
;
    }
    sideWalls
    {
        type            empty;
    }
    glass1
    {
        type            compressible::alphatWallFunction;
        Prt             0.85;
        value           nonuniform List<scalar> 9(0.000143927 0.000209133 0.000262688 0.000313294 0.000362365 0.000409987 0.000457998 0.000498857 0.000511219);
    }
    glass2
    {
        type            compressible::alphatWallFunction;
        Prt             0.85;
        value           nonuniform List<scalar> 2(0.000290306 0.000327123);
    }
    sun
    {
        type            compressible::alphatWallFunction;
        Prt             0.85;
        value           nonuniform List<scalar> 
14
(
0.000147961
0.000157649
0.000157095
0.000163766
0.000169852
0.000175358
0.000180464
0.00018537
0.000190293
0.000195508
0.000200465
0.000205159
0.000209771
0.000214718
)
;
    }
    Table_master
    {
        type            compressible::alphatWallFunction;
        Prt             0.85;
        value           nonuniform List<scalar> 9(0.000191032 0.00016684 0.000147898 0.000132882 0.000120793 0.000110934 0.000102817 9.61577e-05 9.09272e-05);
    }
    Table_slave
    {
        type            compressible::alphatWallFunction;
        Prt             0.85;
        value           nonuniform List<scalar> 9(0.000216381 0.000197607 0.000182929 0.000170617 0.000160045 0.000150483 0.000141405 0.000132321 0.000122424);
    }
    inlet
    {
        type            fixedValue;
        value           uniform 1.94e-05;
    }
    outlet
    {
        type            zeroGradient;
    }
}


// ************************************************************************* //
