/*--------------------------------*- C++ -*----------------------------------*\
  =========                 |
  \\      /  F ield         | OpenFOAM: The Open Source CFD Toolbox
   \\    /   O peration     | Website:  https://openfoam.org
    \\  /    A nd           | Version:  6
     \\/     M anipulation  |
\*---------------------------------------------------------------------------*/
FoamFile
{
    version     2.0;
    format      ascii;
    class       volScalarField;
    location    "8300";
    object      k;
}
// * * * * * * * * * * * * * * * * * * * * * * * * * * * * * * * * * * * * * //

dimensions      [0 2 -2 0 0 0 0];

internalField   nonuniform List<scalar> 
662
(
0.00197725
0.00230767
0.00238873
0.00261851
0.00284212
0.00306237
0.00328864
0.00353454
0.00379255
0.00404113
0.00424465
0.00432621
0.00416884
0.00365273
0.00242412
0.000487247
0.000672321
0.000863116
0.000929404
0.000893575
0.000778834
0.000662857
0.000567374
0.000490845
0.000428989
0.000378475
0.000336908
0.000302155
0.000272231
0.000245381
0.000219969
0.000206361
0.000174936
0.0036841
0.00679286
0.00338057
0.00353675
0.00379472
0.00408452
0.00441157
0.00479401
0.00527319
0.00586772
0.0065012
0.00699923
0.0071262
0.00675215
0.00581711
0.00352441
0.00238924
0.00158137
0.000483701
0.00105316
0.00139863
0.0015555
0.00155877
0.00132554
0.0010744
0.000872192
0.000718307
0.000600646
0.000509392
0.000436887
0.000377481
0.000328132
0.000292439
0.000272375
0.000520346
0.000306733
0.00567814
0.0133062
0.00407281
0.00371247
0.0038321
0.00398928
0.00416592
0.00442087
0.00482067
0.00539161
0.00609254
0.00681892
0.00728643
0.00719632
0.00644716
0.00534541
0.00436726
0.00227212
0.00120012
0.00154125
0.00174473
0.00186436
0.00184091
0.00142878
0.00108846
0.000842109
0.000666374
0.000539844
0.000447243
0.000378437
0.00032702
0.000289567
0.000268369
0.000272123
0.00082904
0.000430843
0.00816748
0.0230701
0.0055412
0.00372262
0.00363389
0.00365417
0.00367126
0.00380858
0.00416438
0.00468641
0.00538184
0.00628395
0.00699896
0.00704468
0.00653339
0.00584942
0.00513513
0.00392949
0.00307497
0.00276123
0.00260047
0.0025441
0.00247388
0.00230894
0.00181516
0.00150819
0.0013134
0.00117755
0.00106917
0.000969228
0.000879137
0.000789419
0.000691674
0.000524639
0.000422529
0.00122118
0.000569404
0.0111064
0.0332256
0.00968618
0.00428333
0.00371014
0.00357935
0.00348599
0.00361814
0.00404116
0.00450149
0.00514575
0.00617029
0.0069508
0.00691703
0.00632774
0.00557985
0.00490155
0.00432528
0.00413356
0.00379783
0.00354653
0.003333
0.003085
0.00277691
0.00244918
0.00222034
0.0020738
0.00195689
0.00183626
0.0016912
0.0015085
0.00130438
0.00109047
0.000857506
0.000661435
0.000967493
0.00115053
0.00102696
0.00113453
0.00133522
0.0149548
0.0453938
0.019197
0.00800719
0.00545086
0.00453553
0.00415665
0.00429068
0.0046326
0.00490703
0.00546774
0.00648807
0.00728979
0.00705687
0.00619319
0.00518598
0.004435
0.00411814
0.00412817
0.00415211
0.00404216
0.00378088
0.00341789
0.00302077
0.00269373
0.00250626
0.00240188
0.00231669
0.00221711
0.00208163
0.00188449
0.00164748
0.00139475
0.00114052
0.000938699
0.000924987
0.00109423
0.00112174
0.00172372
0.00143836
0.0132115
0.0262513
0.0254859
0.0170934
0.0110923
0.00786425
0.0063732
0.0059106
0.00575923
0.00559199
0.00588058
0.00690531
0.00806074
0.00741202
0.00619401
0.00494018
0.00416954
0.00403853
0.00421691
0.0042935
0.00413604
0.00379442
0.00337412
0.00297447
0.0026908
0.00255535
0.00250502
0.00248151
0.0024574
0.00241387
0.00232374
0.00213926
0.0019089
0.00166346
0.00147557
0.00139625
0.00149241
0.00171004
0.00229832
0.00200292
0.00821809
0.0140495
0.0157178
0.0158196
0.0145305
0.0122292
0.0100184
0.00833628
0.00704016
0.00647052
0.00706943
0.00836196
0.00887356
0.00766954
0.00603046
0.00462549
0.00398353
0.00396119
0.00407132
0.0040214
0.00376273
0.00338428
0.00299757
0.00268802
0.00250465
0.00244138
0.00245424
0.00251172
0.0026036
0.00272865
0.00288542
0.00304478
0.0031165
0.00316049
0.00333001
0.00389372
0.00503098
0.00661814
0.0135132
0.00462555
0.00160726
0.00648988
0.00851878
0.00894672
0.00842046
0.00757943
0.00711527
0.00779086
0.00937685
0.0103547
0.009117
0.00719793
0.00516703
0.00410598
0.00371498
0.00362721
0.00356175
0.00338164
0.0030871
0.0027552
0.00246706
0.00227275
0.00218243
0.00217573
0.00222664
0.00232157
0.00245836
0.0026398
0.00286939
0.00314776
0.0034907
0.00392331
0.00449526
0.00517953
0.00583605
0.00629436
0.006525
0.00406241
0.0030703
0.00303388
0.00486659
0.00639064
0.00734899
0.00828398
0.00983842
0.0115739
0.012129
0.010831
0.00736822
0.00558191
0.00431604
0.00366868
0.00336494
0.00319682
0.00302866
0.0028075
0.00254794
0.00229745
0.002104
0.00198496
0.00193301
0.0019324
0.00197113
0.00204494
0.00215623
0.00231313
0.00253016
0.00282762
0.00321291
0.0036894
0.00425238
0.00484515
0.005357
0.00567873
0.00523911
0.00277754
0.00908068
0.0153249
0.00541086
0.00550235
0.0075814
0.00962674
0.0114746
0.0129813
0.0133884
0.0123347
0.00998808
0.00686626
0.00405661
0.00362339
0.00332732
0.0031554
0.00303503
0.00290631
0.00274193
0.00254697
0.00234478
0.00215929
0.00201424
0.00191487
0.00185886
0.00184391
0.0018704
0.00194076
0.00205852
0.00222756
0.00245957
0.00276621
0.00315655
0.00363429
0.00418334
0.0047543
0.00532256
0.00627567
0.00370214
0.00298231
0.00537763
0.00889808
0.010142
0.0124112
0.0136269
0.0136746
0.0127354
0.0108483
0.00838622
0.00602206
0.00400243
0.00253158
0.00147307
0.00139622
0.00132462
0.00125885
0.00119656
0.00113326
0.00107033
0.00101478
0.000974546
0.00095501
0.000953337
0.000968105
0.000997976
0.00104245
0.001102
0.00117816
0.00127392
0.00139484
0.00154364
0.00172288
0.0019368
0.00218953
0.00248343
0.00282256
0.00302494
0.00249391
0.00218269
0.00280517
0.0174741
0.0314921
0.0218235
0.0137791
0.00919135
0.00693023
0.00601943
0.00585147
0.00567024
0.00564669
0.0063275
0.00749011
0.0128853
0.0154622
0.0158607
0.0153773
0.0134271
0.0110625
0.00913163
0.00762668
0.00662963
0.00661992
0.00771009
0.00883023
0.00478328
0.00774172
0.00889362
0.00876106
0.00800179
0.00724853
0.00728424
0.00855196
0.0100369
0.0102685
0.00231408
0.00393688
0.0057054
0.00692084
0.00776649
0.00897002
0.0107716
0.0120701
0.0116934
0.00979938
0.0264122
0.0105216
0.00477122
0.00659092
0.0085866
0.0105665
0.012309
0.0133685
0.0130129
0.0113546
0.00842888
0.00558937
0.0141555
0.00938953
0.0113697
0.0131971
0.013774
0.0133271
0.0119001
0.0096443
0.00716595
0.00496082
0.00318374
0.00202649
0.0143876
0.0183946
0.0206941
0.0186394
0.0147932
0.011171
0.00875679
0.00741316
0.00654642
0.00605016
0.00638334
0.00753303
0.0091761
0.0110402
0.0116161
0.0119183
0.0119795
0.0110534
0.00961666
0.00821596
0.00710772
0.00694295
0.00803401
0.00934941
0.00299879
0.00364387
0.00591452
0.0071531
0.00743251
0.00734165
0.00781657
0.00940212
0.0109602
0.0110176
0.00189419
0.00352593
0.00535317
0.0070946
0.00877349
0.0107045
0.0124647
0.0129789
0.0119491
0.00938085
0.00925087
0.0128932
0.00806475
0.00894728
0.0109603
0.0123781
0.013154
0.0130205
0.0117212
0.00968349
0.00703117
0.00450866
0.00773192
0.00642455
0.00722351
0.00778746
0.00766377
0.00692029
0.00575533
0.00439468
0.00315255
0.0021906
0.00150462
0.0012869
0.0156757
0.0209353
0.0200437
0.0168207
0.0128513
0.00979632
0.00799496
0.00694348
0.00622958
0.00608658
0.00690777
0.00808835
0.00952532
0.0113796
0.0116927
0.0120726
0.0116209
0.0103579
0.00889294
0.00759213
0.00686275
0.00736392
0.0087667
0.00959629
0.00244807
0.00487524
0.00667684
0.00738223
0.00738639
0.00743284
0.00850878
0.0102949
0.0112205
0.0103887
0.0022975
0.00445357
0.00623673
0.00792673
0.00969433
0.0117184
0.0128921
0.0126819
0.0107995
0.00800666
0.0234426
0.0105047
0.00809119
0.0100587
0.0117271
0.0128528
0.0132278
0.0125037
0.0107685
0.00843447
0.00564321
0.00388698
0.00609949
0.00687105
0.00753547
0.00782215
0.00735446
0.00637943
0.00508008
0.00374157
0.0026381
0.00180612
0.00132363
0.00135032
)
;

boundaryField
{
    floor
    {
        type            kqRWallFunction;
        value           nonuniform List<scalar> 
36
(
0.00242412
0.000487247
0.000672321
0.000863116
0.000929404
0.000893575
0.000778834
0.000662857
0.000567374
0.000490845
0.000428989
0.000378475
0.000336908
0.000302155
0.000272231
0.000245381
0.000219969
0.000206361
0.000174936
0.000174936
0.000306733
0.000430843
0.000569404
0.00102696
0.00113453
0.00133522
0.00242412
0.00352441
0.00238924
0.00158137
0.000487247
0.00158137
0.000483701
0.00227212
0.00120012
0.00307497
)
;
    }
    ceiling
    {
        type            kqRWallFunction;
        value           nonuniform List<scalar> 
58
(
0.00609949
0.00687105
0.00753547
0.00782215
0.00735446
0.00637943
0.00508008
0.00374157
0.0026381
0.00180612
0.00132363
0.00135032
0.00147307
0.00139622
0.00132462
0.00125885
0.00119656
0.00113326
0.00107033
0.00101478
0.000974546
0.00095501
0.000953337
0.000968105
0.000997976
0.00104245
0.001102
0.00117816
0.00127392
0.00139484
0.00154364
0.00172288
0.0019368
0.00218953
0.00248343
0.00282256
0.00302494
0.00249391
0.00218269
0.00280517
0.00952532
0.0113796
0.00189419
0.00537763
0.00642455
0.00722351
0.00778746
0.00766377
0.00692029
0.00575533
0.00439468
0.00315255
0.0021906
0.00150462
0.0012869
0.00821809
0.0110402
0.0030703
)
;
    }
    sWall
    {
        type            kqRWallFunction;
        value           nonuniform List<scalar> 4(0.00925087 0.00773192 0.00908068 0.00537763);
    }
    nWall
    {
        type            kqRWallFunction;
        value           nonuniform List<scalar> 6(0.00133522 0.00143836 0.00200292 0.00277754 0.00298231 0.00280517);
    }
    sideWalls
    {
        type            empty;
    }
    glass1
    {
        type            kqRWallFunction;
        value           nonuniform List<scalar> 10(0.00197725 0.0036841 0.00567814 0.00816748 0.0111064 0.0149548 0.0143876 0.0091761 0.0132115 0.00821809);
    }
    glass2
    {
        type            kqRWallFunction;
        value           nonuniform List<scalar> 2(0.00462555 0.00406241);
    }
    sun
    {
        type            kqRWallFunction;
        value           nonuniform List<scalar> 
14
(
0.00197725
0.00230767
0.00238873
0.00261851
0.00284212
0.00306237
0.00328864
0.00353454
0.00379255
0.00404113
0.00424465
0.00432621
0.00416884
0.00365273
)
;
    }
    Table_master
    {
        type            kqRWallFunction;
        value           nonuniform List<scalar> 9(0.00142878 0.00108846 0.000842109 0.000666374 0.000539844 0.000447243 0.000378437 0.00032702 0.000289567);
    }
    Table_slave
    {
        type            kqRWallFunction;
        value           nonuniform List<scalar> 9(0.00181516 0.00150819 0.0013134 0.00117755 0.00106917 0.000969228 0.000879137 0.000789419 0.000691674);
    }
    inlet
    {
        type            turbulentIntensityKineticEnergyInlet;
        intensity       0.05;
        value           uniform 0.0009375;
    }
    outlet
    {
        type            zeroGradient;
    }
}


// ************************************************************************* //
