/*--------------------------------*- C++ -*----------------------------------*\
  =========                 |
  \\      /  F ield         | OpenFOAM: The Open Source CFD Toolbox
   \\    /   O peration     | Website:  https://openfoam.org
    \\  /    A nd           | Version:  6
     \\/     M anipulation  |
\*---------------------------------------------------------------------------*/
FoamFile
{
    version     2.0;
    format      ascii;
    class       volScalarField;
    location    "2500";
    object      alphat;
}
// * * * * * * * * * * * * * * * * * * * * * * * * * * * * * * * * * * * * * //

dimensions      [1 -1 -1 0 0 0 0];

internalField   nonuniform List<scalar> 
458
(
0.00124408
0.00135521
0.00138589
0.00145221
0.00151329
0.00157113
0.00162899
0.00168774
0.00173578
0.00176599
0.00176944
0.00173735
0.00165865
0.00149202
0.00113177
0.000559103
0.000655482
0.000743169
0.000774877
0.000762731
0.000713752
0.000659563
0.000611076
0.000569074
0.000532593
0.000500738
0.000472862
0.000448143
0.00042563
0.000404276
0.000382833
0.000370089
0.000340107
0.00167643
0.00377468
0.00348171
0.00398934
0.00449543
0.00501604
0.00548317
0.00584448
0.00621577
0.00656347
0.00684251
0.00701209
0.00702793
0.00678332
0.00551294
0.00149401
0.00123944
0.00101118
0.000554583
0.00131631
0.00191864
0.00238488
0.00253222
0.00184543
0.00155788
0.00136222
0.00121785
0.00110722
0.00101946
0.000943791
0.000872645
0.000801631
0.000738198
0.000684997
0.000837917
0.000447117
0.00203692
0.00507262
0.0041865
0.00510443
0.00549008
0.00576088
0.00596909
0.00616132
0.00642921
0.00675505
0.00711118
0.00746005
0.00773531
0.00783156
0.00737923
0.00601398
0.00455782
0.00119427
0.000854324
0.00147432
0.0021454
0.00281288
0.00300343
0.000959295
0.000839852
0.000740463
0.000659963
0.000595003
0.000542358
0.000499565
0.000464961
0.000438043
0.00048544
0.00056218
0.00098309
0.000528393
0.00238379
0.00647838
0.00407213
0.00528782
0.00549875
0.00547759
0.00545803
0.00555027
0.00576828
0.00609094
0.0065009
0.00695772
0.00735744
0.0076085
0.0075514
0.00716066
0.00614564
0.00337384
0.0013758
0.00175208
0.00240866
0.00321254
0.00390911
0.00394323
0.00108041
0.000990313
0.000928942
0.000883645
0.000845343
0.000807298
0.000771162
0.000732982
0.000688359
0.000648443
0.000639018
0.00117166
0.000608554
0.00273781
0.00836908
0.00427094
0.00501917
0.00532067
0.0051404
0.00499372
0.00507737
0.0053077
0.00564378
0.00608608
0.00658719
0.00697893
0.00717347
0.00716816
0.00703111
0.0066259
0.00547894
0.00496579
0.00500162
0.0052929
0.00563983
0.00585238
0.00575595
0.00491078
0.00447606
0.00423637
0.00406468
0.00389095
0.00366721
0.00328719
0.00279773
0.00224095
0.00170472
0.00127865
0.00119126
0.00103422
0.000813331
0.000860759
0.000935587
0.00311664
0.0104979
0.00584856
0.00464667
0.00506412
0.00505342
0.00486619
0.0049354
0.00517066
0.00550731
0.0059562
0.00643691
0.0067994
0.00691465
0.00680415
0.00664674
0.00657607
0.00648166
0.00667665
0.00701472
0.00725162
0.0072934
0.00713313
0.00679846
0.00633152
0.00595209
0.00565658
0.00539627
0.00514081
0.00486968
0.00451943
0.00403947
0.00343225
0.00274547
0.00210979
0.00152981
0.00125746
0.00109686
0.00138114
0.000970513
0.0034894
0.0121022
0.00872422
0.00570993
0.00496869
0.00503992
0.00510359
0.00514046
0.00527432
0.00557162
0.00601371
0.00649027
0.0068226
0.00685873
0.0066492
0.00649794
0.00674744
0.00730063
0.00786347
0.00818076
0.00818119
0.00790831
0.00744647
0.00688445
0.00632511
0.00587491
0.00553406
0.00525774
0.00501611
0.00479914
0.0046017
0.00434373
0.00391924
0.00335231
0.00276328
0.00219732
0.00182799
0.0016746
0.00159618
0.00115309
0.00357897
0.0112156
0.009527
0.00799787
0.00682793
0.00630969
0.00582322
0.00549372
0.00548999
0.00577421
0.00623159
0.00670219
0.00698146
0.0069163
0.00665957
0.00672338
0.00743616
0.00802106
0.00832528
0.00831082
0.00797998
0.00740819
0.00670453
0.00599541
0.00540642
0.00499371
0.0047154
0.00451552
0.0043676
0.00426794
0.00422374
0.00422569
0.00411257
0.0037757
0.00344716
0.00326412
0.003344
0.00353002
0.00419308
0.00178523
0.00350477
0.00423041
0.0046753
0.00492486
0.00496213
0.00488889
0.00489232
0.00510042
0.00552024
0.00605392
0.00659925
0.00702804
0.00716461
0.00691714
0.00684662
0.00720814
0.00762621
0.00776935
0.00766524
0.00730201
0.00669368
0.0059424
0.00519269
0.00457761
0.0041523
0.00388144
0.00369973
0.00356168
0.00344396
0.00333341
0.00321993
0.00309531
0.00298232
0.00288456
0.00281977
0.00278318
0.00271362
0.00257062
0.002397
0.00166668
0.00157981
0.00276065
0.00377669
0.00457223
0.0053009
0.00600987
0.00657128
0.00694689
0.00719081
0.00722384
0.00698579
0.00669693
0.00669765
0.00681711
0.00672527
0.00645433
0.0060272
0.00545219
0.00479062
0.00414459
0.00363043
0.00328421
0.00307197
0.00294169
0.00285518
0.00279217
0.00274382
0.0027081
0.00268803
0.00269431
0.00271003
0.00272403
0.00272476
0.00268161
0.00254862
0.00231435
0.00202417
0.00134113
0.00238087
0.00465351
0.00595106
0.00679153
0.00744516
0.00749553
0.0071035
0.00670949
0.0063723
0.00573422
0.00528037
0.00517457
0.00510281
0.00490293
0.00460186
0.00422874
0.00379125
0.00333107
0.00291626
0.00259351
0.00237111
0.00224293
0.0021829
0.00216998
0.00219126
0.0022385
0.0023045
0.00238085
0.00247026
0.00257292
0.00268273
0.00279057
0.00287828
0.00292215
0.00288124
0.00284555
0.00261987
0.0013586
0.00249159
0.00255349
0.00260944
0.00289324
0.00272908
0.00241435
0.0020336
0.00172835
0.00154177
0.00136495
0.00120949
0.00108786
0.000984934
0.000906923
0.000852705
0.000813095
0.000781239
0.000753827
0.000731196
0.000715927
0.000710234
0.000714523
0.000727209
0.000745858
0.000769423
0.000797347
0.000829471
0.000865987
0.000907499
0.00095531
0.0010097
0.00107028
0.00113735
0.00121122
0.00129194
0.00138866
0.00143096
0.00140162
0.00130369
0.00120559
)
;

boundaryField
{
    floor
    {
        type            compressible::alphatWallFunction;
        Prt             0.85;
        value           nonuniform List<scalar> 
36
(
0.000160683
7.82006e-05
9.2608e-05
0.000105492
0.000110106
0.000108342
0.000101192
9.3213e-05
8.60053e-05
7.97049e-05
7.41859e-05
6.93283e-05
6.50456e-05
6.12213e-05
5.77149e-05
5.4367e-05
5.09824e-05
4.89594e-05
4.41639e-05
4.41633e-05
6.10626e-05
7.35486e-05
8.56302e-05
0.00011568
0.000122504
0.000133176
0.000160681
0.000210146
0.000175549
0.000143834
7.81997e-05
0.000143833
7.75171e-05
0.00016933
0.000121566
0.000194173
)
;
    }
    ceiling
    {
        type            compressible::alphatWallFunction;
        Prt             0.85;
        value           nonuniform List<scalar> 
43
(
0.000340273
0.000348136
0.000355228
0.000391035
0.000370452
0.000330569
0.000281551
0.00024153
0.000216689
0.000192834
0.000171568
0.000154712
0.000140276
0.000129218
0.000121467
0.000115767
0.000111159
0.000107176
0.000103874
0.000101639
0.000100805
0.000101434
0.000103291
0.000106015
0.000109444
0.000113492
0.000118128
0.000123372
0.000129302
0.000136092
0.000143769
0.000152262
0.000161601
0.000171814
0.000182893
0.000196066
0.000201795
0.000197825
0.000184502
0.000171043
0.000467119
0.000555337
0.000326056
)
;
    }
    sWall
    {
        type            compressible::alphatWallFunction;
        Prt             0.85;
        value           uniform 0.00033903;
    }
    nWall
    {
        type            compressible::alphatWallFunction;
        Prt             0.85;
        value           nonuniform List<scalar> 6(0.000132957 0.000137898 0.000163425 0.000189266 0.000191641 0.000170702);
    }
    sideWalls
    {
        type            empty;
    }
    glass1
    {
        type            compressible::alphatWallFunction;
        Prt             0.85;
        value           nonuniform List<scalar> 9(0.000171655 0.000229164 0.000275988 0.000320289 0.000364869 0.000411952 0.000457745 0.00046881 0.000459996);
    }
    glass2
    {
        type            compressible::alphatWallFunction;
        Prt             0.85;
        value           nonuniform List<scalar> 2(0.000247083 0.000231539);
    }
    sun
    {
        type            compressible::alphatWallFunction;
        Prt             0.85;
        value           nonuniform List<scalar> 
14
(
0.000176205
0.000191374
0.000195541
0.000204514
0.000212738
0.000220491
0.000228216
0.000236028
0.000242394
0.000246386
0.000246842
0.000242599
0.000232162
0.000209877
)
;
    }
    Table_master
    {
        type            compressible::alphatWallFunction;
        Prt             0.85;
        value           nonuniform List<scalar> 9(0.00013667 0.000119635 0.00010524 9.34108e-05 8.37363e-05 7.58004e-05 6.92787e-05 6.39534e-05 5.97764e-05);
    }
    Table_slave
    {
        type            compressible::alphatWallFunction;
        Prt             0.85;
        value           nonuniform List<scalar> 9(0.000153694 0.000141055 0.000132369 0.000125915 0.000120427 0.000114947 0.000109713 0.00010415 9.76049e-05);
    }
    inlet
    {
        type            fixedValue;
        value           uniform 1.94e-05;
    }
    outlet
    {
        type            zeroGradient;
    }
}


// ************************************************************************* //
