/*--------------------------------*- C++ -*----------------------------------*\
  =========                 |
  \\      /  F ield         | OpenFOAM: The Open Source CFD Toolbox
   \\    /   O peration     | Website:  https://openfoam.org
    \\  /    A nd           | Version:  6
     \\/     M anipulation  |
\*---------------------------------------------------------------------------*/
FoamFile
{
    version     2.0;
    format      ascii;
    class       volScalarField;
    location    "100";
    object      alphat;
}
// * * * * * * * * * * * * * * * * * * * * * * * * * * * * * * * * * * * * * //

dimensions      [1 -1 -1 0 0 0 0];

internalField   nonuniform List<scalar> 
459
(
0.00125336
0.00137202
0.00140408
0.00147434
0.0015392
0.00159988
0.00165912
0.00172045
0.00177278
0.00180813
0.00181907
0.00179832
0.00174181
0.0016519
0.00154299
0.00064704
0.000801397
0.0009056
0.00090427
0.000880217
0.000846518
0.000802499
0.000757874
0.000717002
0.000680574
0.000648306
0.000619722
0.000594194
0.000571059
0.00054976
0.000529012
0.000506709
0.000481339
0.000436741
0.0016914
0.00404752
0.00383168
0.00444169
0.00505364
0.00567902
0.0062647
0.00672365
0.00714341
0.00752777
0.00783063
0.00798763
0.00790427
0.00736233
0.00561533
0.00158852
0.000897958
0.000687038
0.00150972
0.00205759
0.00245339
0.00267086
0.00267574
0.00216644
0.00188631
0.00168472
0.00152739
0.00139927
0.00129189
0.00120156
0.00112278
0.00103858
0.000956128
0.000881926
0.000896458
0.000492399
0.00206063
0.00553484
0.00476642
0.00596446
0.00660076
0.00707826
0.00743997
0.00771824
0.00801381
0.00835515
0.00872208
0.00906247
0.00930805
0.00935251
0.00890395
0.00702722
0.00157724
0.00136007
0.00196588
0.00255205
0.00307357
0.00343375
0.00336287
0.00111008
0.000990481
0.000892665
0.000812421
0.000745828
0.000689697
0.000641625
0.000600319
0.000566396
0.000608995
0.000706643
0.000971132
0.000527356
0.00241945
0.00711586
0.00478138
0.0063666
0.00697972
0.00719177
0.00726236
0.00733551
0.00750695
0.00779872
0.0082035
0.00865824
0.00909592
0.00943168
0.00951668
0.00901395
0.00662852
0.00189812
0.00234969
0.00306707
0.00379759
0.00439924
0.00477934
0.00449799
0.00122401
0.00110744
0.00101901
0.00094863
0.000889678
0.000836588
0.000785149
0.000731779
0.000671301
0.000636136
0.000675774
0.00103383
0.000553569
0.00278995
0.00918122
0.00529125
0.00611308
0.00697936
0.0071079
0.00699329
0.00688741
0.0070055
0.00726937
0.00770359
0.00821304
0.00869583
0.00904428
0.00919482
0.0090763
0.00846394
0.00716009
0.00680198
0.00678229
0.00685745
0.00691589
0.00688981
0.00661291
0.00549018
0.00491846
0.00456397
0.00426461
0.00393308
0.00354116
0.00307556
0.00253702
0.00194228
0.00134678
0.000981581
0.00105211
0.00065186
0.000648355
0.000790312
0.000878283
0.00318669
0.0114493
0.0074372
0.00605687
0.00661368
0.00695767
0.00686016
0.00677981
0.00686806
0.00709726
0.00751118
0.00805202
0.00856854
0.00890568
0.00899121
0.00886993
0.00866246
0.00849389
0.00852328
0.00858032
0.00855223
0.00842946
0.00822057
0.00789823
0.00738172
0.00691445
0.00649684
0.00607461
0.0056063
0.00507056
0.00444646
0.00372469
0.00292039
0.00209229
0.00146921
0.00119013
0.000839889
0.00074102
0.00109874
0.000908122
0.00354939
0.0130477
0.0105586
0.00804683
0.00744273
0.00745263
0.00729954
0.00707809
0.00699339
0.00717114
0.00762481
0.00823505
0.008797
0.00911988
0.00913555
0.00895915
0.00884826
0.00899584
0.00927369
0.00939251
0.00928096
0.00900532
0.00862786
0.00817621
0.00767643
0.00720299
0.00674927
0.00629962
0.00584033
0.00534824
0.00477654
0.00411528
0.00337866
0.00261205
0.00197388
0.00154568
0.00119964
0.00109895
0.00112231
0.000967465
0.00361894
0.0116021
0.0103752
0.00966279
0.00911097
0.00844948
0.00767408
0.00713741
0.00702833
0.00736681
0.00802695
0.00878001
0.00936691
0.00959982
0.00947221
0.00921165
0.00915317
0.00940404
0.00962239
0.00947643
0.0090768
0.00853821
0.00793979
0.00733909
0.00678083
0.00627911
0.00581327
0.00537085
0.00495845
0.00458666
0.00422569
0.00377926
0.00328539
0.00275868
0.00227236
0.00205661
0.00203568
0.00241744
0.00329571
0.00157208
0.00352141
0.0041842
0.00448001
0.00464193
0.00472781
0.00484087
0.00513836
0.00576169
0.0067219
0.00787657
0.00899319
0.00983332
0.0102122
0.0100726
0.00960702
0.0093195
0.00928062
0.00922818
0.00896652
0.00845193
0.00777961
0.00705613
0.00635971
0.0057336
0.00518472
0.00469198
0.00423028
0.00378886
0.00336904
0.00297636
0.00263571
0.00236606
0.00216146
0.00204033
0.00201582
0.00207965
0.00215258
0.00215419
0.00205078
0.00150492
0.00110637
0.00221144
0.00375004
0.0055038
0.007275
0.0088756
0.010132
0.0109251
0.0112286
0.0110773
0.0105275
0.00974044
0.00897154
0.00850102
0.00813301
0.00764197
0.00701747
0.00632324
0.00563278
0.00500997
0.00447309
0.00401045
0.00360199
0.00323388
0.00290466
0.00262185
0.00239702
0.0022358
0.00212703
0.0020615
0.00203611
0.00204989
0.00209459
0.00214391
0.00214921
0.00207748
0.00192588
0.00129025
0.00254508
0.00648934
0.00871014
0.0100014
0.0108196
0.0112297
0.0112109
0.0108259
0.0101256
0.00922708
0.00829994
0.00750071
0.00683632
0.00624797
0.00567051
0.00512215
0.00463444
0.00421623
0.00386254
0.00355477
0.00327885
0.00302707
0.00279815
0.00259552
0.0024243
0.00228846
0.00218776
0.00212073
0.00208632
0.00208432
0.00211477
0.00217413
0.00224853
0.00231174
0.00232909
0.00241292
0.00255648
0.00131896
0.0024119
0.00253779
0.00263828
0.00287187
0.00278812
0.00263211
0.00247859
0.00232717
0.00217049
0.00200226
0.0018155
0.00161938
0.00143132
0.00126995
0.00114618
0.00105814
0.000995842
0.000950177
0.000915338
0.000888152
0.000866963
0.000850715
0.000839172
0.000832513
0.000831053
0.000835058
0.000844639
0.000859777
0.000880346
0.000906345
0.000938074
0.00097613
0.00102147
0.00107526
0.0011379
0.00121088
0.00125275
0.00123075
0.00116083
0.00109388
)
;

boundaryField
{
    floor
    {
        type            compressible::alphatWallFunction;
        Prt             0.85;
        value           nonuniform List<scalar> 
29
(
0.000216763
9.13946e-05
0.000113987
0.000128938
0.000128749
0.000125317
0.00012049
0.000114149
0.000107678
0.000101711
9.63583e-05
9.15879e-05
8.73379e-05
8.35221e-05
8.00465e-05
7.68313e-05
7.36843e-05
7.02841e-05
6.63926e-05
5.94883e-05
5.94876e-05
6.80863e-05
7.34238e-05
7.7398e-05
0.000216761
9.13935e-05
9.73047e-05
0.000192083
0.000263806
)
;
    }
    ceiling
    {
        type            compressible::alphatWallFunction;
        Prt             0.85;
        value           nonuniform List<scalar> 
43
(
0.000330137
0.000346162
0.000358895
0.000388381
0.000377917
0.000358274
0.000338813
0.000319484
0.000299339
0.000277532
0.000253085
0.000227111
0.000201871
0.000179916
0.000162861
0.000150603
0.000141858
0.000135408
0.000130463
0.000126589
0.00012356
0.000121232
0.000119574
0.000118617
0.000118407
0.000118984
0.000120362
0.000122536
0.000125481
0.000129193
0.000133705
0.000139093
0.00014548
0.000153014
0.000161734
0.000171823
0.000177582
0.000174559
0.000164912
0.000155612
0.000469201
0.000549811
0.000346931
)
;
    }
    sWall
    {
        type            compressible::alphatWallFunction;
        Prt             0.85;
        value           uniform 0.000328922;
    }
    nWall
    {
        type            compressible::alphatWallFunction;
        Prt             0.85;
        value           nonuniform List<scalar> 6(0.000124863 0.000129115 0.000137535 0.000182397 0.000186318 0.000155296);
    }
    sideWalls
    {
        type            empty;
    }
    glass1
    {
        type            compressible::alphatWallFunction;
        Prt             0.85;
        value           nonuniform List<scalar> 9(0.000173182 0.00023145 0.000279392 0.000325182 0.000371775 0.000421 0.000465494 0.000474105 0.00046244);
    }
    glass2
    {
        type            compressible::alphatWallFunction;
        Prt             0.85;
        value           nonuniform List<scalar> 2(0.000219257 0.00021035);
    }
    sun
    {
        type            compressible::alphatWallFunction;
        Prt             0.85;
        value           nonuniform List<scalar> 
14
(
0.000177517
0.000193698
0.000198045
0.000207536
0.000216252
0.00022437
0.000232262
0.000240401
0.000247318
0.000251981
0.00025342
0.000250688
0.000243228
0.000231304
)
;
    }
    heatsource1
    {
        type            compressible::alphatWallFunction;
        Prt             0.85;
        value           nonuniform List<scalar> 3(9.16921e-05 0.000112491 0.000125149);
    }
    heatsource2
    {
        type            compressible::alphatWallFunction;
        Prt             0.85;
        value           nonuniform List<scalar> 4(0.000222983 0.000127959 0.000127957 0.000221467);
    }
    Table_master
    {
        type            compressible::alphatWallFunction;
        Prt             0.85;
        value           nonuniform List<scalar> 9(0.000157827 0.000141078 0.000127204 0.000115687 0.000106025 9.78006e-05 9.06912e-05 8.45298e-05 7.94308e-05);
    }
    Table_slave
    {
        type            compressible::alphatWallFunction;
        Prt             0.85;
        value           nonuniform List<scalar> 9(0.000173588 0.000157456 0.00014509 0.000135158 0.000126772 0.000119164 0.000111738 0.00010397 9.50846e-05);
    }
    inlet
    {
        type            fixedValue;
        value           uniform 1.94e-05;
    }
    outlet
    {
        type            zeroGradient;
    }
}


// ************************************************************************* //
