/*--------------------------------*- C++ -*----------------------------------*\
  =========                 |
  \\      /  F ield         | OpenFOAM: The Open Source CFD Toolbox
   \\    /   O peration     | Website:  https://openfoam.org
    \\  /    A nd           | Version:  6
     \\/     M anipulation  |
\*---------------------------------------------------------------------------*/
FoamFile
{
    version     2.0;
    format      ascii;
    class       volScalarField;
    location    "100";
    object      epsilon;
}
// * * * * * * * * * * * * * * * * * * * * * * * * * * * * * * * * * * * * * //

dimensions      [0 2 -3 0 0 0 0];

internalField   nonuniform List<scalar> 
459
(
0.000445701
0.00058315
0.000624912
0.000723471
0.000823175
0.000924389
0.00103086
0.00114941
0.00125742
0.00133405
0.00135825
0.00131219
0.00119226
0.00101698
0.000828862
6.12111e-05
0.000116278
0.000167771
0.000167036
0.000154069
0.000137053
0.000116773
9.8361e-05
8.32946e-05
7.12372e-05
6.15813e-05
5.37938e-05
4.74201e-05
4.2098e-05
3.7565e-05
3.34743e-05
2.94209e-05
2.52237e-05
1.88492e-05
0.00109738
0.00158987
0.0005548
0.000546832
0.000573971
0.000613019
0.000668097
0.00074695
0.000838109
0.000920165
0.000967473
0.000958893
0.000888704
0.000774303
0.000692896
0.000904363
0.000163377
7.32863e-05
0.000196053
0.000202284
0.000183221
0.000156643
0.000132601
0.000121815
0.000101089
8.22587e-05
6.6956e-05
5.48426e-05
4.53003e-05
3.77075e-05
3.15963e-05
2.69073e-05
2.41925e-05
2.36224e-05
3.27783e-05
2.70061e-05
0.00198817
0.00389008
0.000671546
0.00050753
0.00052699
0.000580199
0.000659777
0.0007703
0.000897625
0.00100949
0.00107689
0.00108226
0.00102586
0.000920962
0.000821213
0.000780131
0.000885221
0.000568214
0.0004067
0.000310001
0.000241777
0.000191943
0.000163026
0.000309126
0.000219593
0.000160747
0.000121174
9.37494e-05
7.41321e-05
5.96832e-05
4.88801e-05
4.1053e-05
3.051e-05
2.52418e-05
4.24667e-05
3.31738e-05
0.00322436
0.00814244
0.00106808
0.000503149
0.000495699
0.000562661
0.000672785
0.000837904
0.00101286
0.00114426
0.00121256
0.00121133
0.00114685
0.00102608
0.000902033
0.000815631
0.000805153
0.00154356
0.000876312
0.000540512
0.000370072
0.000271377
0.000209451
0.000180494
0.000414632
0.000307118
0.000239292
0.000193069
0.000159278
0.000132442
0.000109491
8.86517e-05
6.84415e-05
4.026e-05
2.74047e-05
5.15298e-05
3.83735e-05
0.00495333
0.0146348
0.00217684
0.000612845
0.000504056
0.000572277
0.000735679
0.00102273
0.001249
0.00137447
0.00141898
0.0013911
0.00129371
0.00113559
0.000947725
0.000766443
0.000622422
0.000553248
0.000458931
0.00037161
0.000299351
0.000241513
0.000196296
0.000164497
0.000158002
0.000145125
0.000131709
0.000118284
0.00010489
9.14671e-05
7.80891e-05
6.50326e-05
5.24052e-05
3.8396e-05
2.82966e-05
4.32347e-05
3.54477e-05
6.17657e-05
0.000111973
0.000153672
0.00739363
0.0218473
0.00504239
0.00128318
0.000816698
0.000828246
0.0011439
0.00151839
0.00170007
0.00175361
0.00173946
0.00166785
0.0015229
0.00130397
0.00104167
0.000785619
0.000584385
0.000459873
0.000383486
0.000323015
0.0002681
0.000220284
0.000181357
0.000152766
0.000136513
0.000126894
0.0001186
0.000109082
9.78755e-05
8.53094e-05
7.2078e-05
5.89539e-05
4.68328e-05
3.65933e-05
3.05928e-05
3.68199e-05
3.53508e-05
4.59428e-05
0.000206211
0.000169797
0.0102323
0.0261734
0.0104274
0.00438848
0.00287006
0.00240962
0.00259025
0.0025929
0.00247858
0.00234657
0.00222186
0.00207015
0.00184537
0.00153632
0.00118117
0.000844325
0.00059015
0.000435911
0.000348197
0.00028711
0.000235564
0.000193029
0.000160808
0.000139246
0.000128116
0.000122777
0.00011824
0.000112272
0.000104217
9.38371e-05
8.19172e-05
6.93817e-05
5.70006e-05
4.65672e-05
4.23872e-05
4.69904e-05
5.56205e-05
8.73334e-05
0.000215334
0.00020527
0.0108696
0.028246
0.0159659
0.011211
0.00848279
0.00667822
0.00522145
0.00417984
0.00352011
0.0031321
0.00287417
0.0026121
0.00225741
0.00180314
0.00131322
0.000869231
0.000560326
0.000386232
0.000291906
0.000235389
0.000193048
0.000161979
0.00014119
0.000129267
0.000124272
0.000123198
0.000123517
0.000124244
0.000125315
0.000126335
0.00012608
0.000125457
0.000124822
0.000125926
0.000138872
0.000203262
0.000381719
0.000835883
0.00295525
0.000882109
0.0100455
0.0168062
0.0127264
0.00966182
0.00747868
0.00596333
0.00496125
0.00438852
0.00410664
0.00393327
0.00369675
0.00328688
0.00267737
0.00196012
0.00127955
0.000711705
0.00042728
0.000297253
0.000228964
0.00018688
0.000158027
0.000138741
0.000127005
0.000121091
0.000119412
0.000120555
0.000123732
0.000129037
0.000137271
0.000149834
0.000169223
0.000199129
0.000247492
0.000325802
0.000450217
0.000635927
0.000871859
0.00110062
0.00125569
0.000774957
0.00213743
0.00319951
0.00428702
0.00520749
0.00587643
0.00618418
0.00605058
0.00549564
0.00460817
0.00351841
0.00229449
0.00126781
0.000700558
0.000404117
0.000269207
0.000205688
0.000170961
0.000149013
0.000134177
0.000124015
0.000117017
0.000112214
0.000109116
0.000107726
0.000108557
0.000112537
0.000120804
0.0001349
0.00015698
0.000190382
0.000240268
0.000313551
0.000416022
0.000543615
0.000669288
0.000744624
0.000734821
0.000488442
0.00353126
0.00930526
0.00953798
0.00857273
0.00761619
0.00656209
0.00530039
0.00399878
0.00280764
0.0018328
0.00111584
0.000660058
0.000415017
0.000295261
0.000241087
0.000215702
0.000201816
0.000192115
0.00018358
0.0001751
0.000166346
0.000157614
0.000149618
0.000143258
0.000139469
0.000139145
0.00014327
0.000153054
0.000170217
0.000197461
0.000238724
0.000298595
0.000379203
0.000473937
0.00055737
0.000658358
0.000687879
0.000521742
0.00307582
0.00358122
0.00402353
0.00524852
0.00483497
0.00408759
0.00342503
0.00284191
0.00230993
0.00181595
0.00135526
0.000962602
0.000665074
0.000464738
0.000341771
0.000268969
0.000224243
0.000194815
0.000174182
0.000159134
0.000148026
0.000139867
0.000134258
0.000131092
0.000130408
0.000132307
0.000136917
0.000144416
0.000155035
0.000169183
0.000187582
0.00021135
0.000242193
0.000282499
0.000334807
0.000403456
0.000446832
0.000423732
0.000355555
0.000297625
)
;

boundaryField
{
    floor
    {
        Cmu             0.09;
        kappa           0.41;
        E               9.8;
        type            epsilonWallFunction;
        value           nonuniform List<scalar> 
29
(
0.000828862
6.12111e-05
0.000116278
0.000167771
0.000167036
0.000154069
0.000137053
0.000116773
9.8361e-05
8.32946e-05
7.12372e-05
6.15813e-05
5.37938e-05
4.74201e-05
4.2098e-05
3.7565e-05
3.34743e-05
2.94209e-05
2.52237e-05
1.88492e-05
1.88492e-05
2.70061e-05
3.31738e-05
3.83735e-05
0.000828862
6.12111e-05
7.32863e-05
0.000568214
0.00154356
)
;
    }
    ceiling
    {
        Cmu             0.09;
        kappa           0.41;
        E               9.8;
        type            epsilonWallFunction;
        value           nonuniform List<scalar> 
43
(
0.00307582
0.00358122
0.00402353
0.00524852
0.00483497
0.00408759
0.00342503
0.00284191
0.00230993
0.00181595
0.00135526
0.000962602
0.000665074
0.000464738
0.000341771
0.000268969
0.000224243
0.000194815
0.000174182
0.000159134
0.000148026
0.000139867
0.000134258
0.000131092
0.000130408
0.000132307
0.000136917
0.000144416
0.000155035
0.000169183
0.000187582
0.00021135
0.000242193
0.000282499
0.000334807
0.000403456
0.000446832
0.000423732
0.000355555
0.000297625
0.0100455
0.0168062
0.00353126
)
;
    }
    sWall
    {
        Cmu             0.09;
        kappa           0.41;
        E               9.8;
        type            epsilonWallFunction;
        value           uniform 0.00307582;
    }
    nWall
    {
        Cmu             0.09;
        kappa           0.41;
        E               9.8;
        type            epsilonWallFunction;
        value           nonuniform List<scalar> 6(0.000153672 0.000169797 0.00020527 0.000488442 0.000521742 0.000297625);
    }
    sideWalls
    {
        type            empty;
    }
    glass1
    {
        Cmu             0.09;
        kappa           0.41;
        E               9.8;
        type            epsilonWallFunction;
        value           nonuniform List<scalar> 9(0.000445701 0.00109738 0.00198817 0.00322436 0.00495333 0.00739363 0.0102323 0.0108696 0.0100455);
    }
    glass2
    {
        Cmu             0.09;
        kappa           0.41;
        E               9.8;
        type            epsilonWallFunction;
        value           nonuniform List<scalar> 2(0.000882109 0.000774957);
    }
    sun
    {
        Cmu             0.09;
        kappa           0.41;
        E               9.8;
        type            epsilonWallFunction;
        value           nonuniform List<scalar> 
14
(
0.000445701
0.00058315
0.000624912
0.000723471
0.000823175
0.000924389
0.00103086
0.00114941
0.00125742
0.00133405
0.00135825
0.00131219
0.00119226
0.00101698
)
;
    }
    heatsource1
    {
        Cmu             0.09;
        kappa           0.41;
        E               9.8;
        type            epsilonWallFunction;
        value           nonuniform List<scalar> 3(6.17657e-05 0.000111973 0.000153672);
    }
    heatsource2
    {
        Cmu             0.09;
        kappa           0.41;
        E               9.8;
        type            epsilonWallFunction;
        value           nonuniform List<scalar> 4(0.000904363 0.000163377 0.000163377 0.000885221);
    }
    Table_master
    {
        Cmu             0.09;
        kappa           0.41;
        E               9.8;
        type            epsilonWallFunction;
        value           nonuniform List<scalar> 9(0.000309126 0.000219593 0.000160747 0.000121174 9.37494e-05 7.41321e-05 5.96832e-05 4.88801e-05 4.1053e-05);
    }
    Table_slave
    {
        Cmu             0.09;
        kappa           0.41;
        E               9.8;
        type            epsilonWallFunction;
        value           nonuniform List<scalar> 9(0.000414632 0.000307118 0.000239292 0.000193069 0.000159278 0.000132442 0.000109491 8.86517e-05 6.84415e-05);
    }
    inlet
    {
        type            turbulentMixingLengthDissipationRateInlet;
        mixingLength    0.01;
        phi             phi;
        k               k;
        value           uniform 0.000471669;
    }
    outlet
    {
        type            zeroGradient;
    }
}


// ************************************************************************* //
