/*--------------------------------*- C++ -*----------------------------------*\
  =========                 |
  \\      /  F ield         | OpenFOAM: The Open Source CFD Toolbox
   \\    /   O peration     | Website:  https://openfoam.org
    \\  /    A nd           | Version:  6
     \\/     M anipulation  |
\*---------------------------------------------------------------------------*/
FoamFile
{
    version     2.0;
    format      ascii;
    class       volScalarField;
    location    "100";
    object      nut;
}
// * * * * * * * * * * * * * * * * * * * * * * * * * * * * * * * * * * * * * //

dimensions      [0 2 -1 0 0 0 0];

internalField   nonuniform List<scalar> 
459
(
0.00107997
0.00118121
0.00120876
0.00126924
0.00132506
0.00137728
0.00142826
0.00148104
0.00152604
0.00155643
0.00156578
0.00154786
0.00149918
0.00142177
0.00132804
0.000557169
0.000690022
0.000779719
0.000778582
0.000757883
0.000728877
0.000690983
0.000652566
0.00061738
0.00058602
0.000558243
0.000533639
0.000511668
0.000491759
0.000473433
0.000455583
0.0004364
0.000414584
0.000376234
0.00145829
0.00348517
0.00329908
0.00382436
0.00435131
0.00488981
0.00539408
0.00578917
0.00615036
0.00648086
0.006741
0.00687555
0.00680334
0.00633665
0.004833
0.0013672
0.000772872
0.000591632
0.00129987
0.00177156
0.00211238
0.00229969
0.00230393
0.00186541
0.00162421
0.00145063
0.00131516
0.00120485
0.0011124
0.00103463
0.000966811
0.000894332
0.000823363
0.000759512
0.000772106
0.000424181
0.00177776
0.00476674
0.00410445
0.0051363
0.00568453
0.00609601
0.00640769
0.00664735
0.00690157
0.00719473
0.0075095
0.00780136
0.00801184
0.00804965
0.00766353
0.00604835
0.00135755
0.00117094
0.00169253
0.0021973
0.00264648
0.00295678
0.00289586
0.000955909
0.000852914
0.000768677
0.000699573
0.000642228
0.000593894
0.000552503
0.000516941
0.000487743
0.000524447
0.000608575
0.000836441
0.000454307
0.00208865
0.00612973
0.00411787
0.00548341
0.00601203
0.00619526
0.00625656
0.0063198
0.00646711
0.00671727
0.00706409
0.0074539
0.00782939
0.0081178
0.00819099
0.00775858
0.0057056
0.00163393
0.00202281
0.00264067
0.00326999
0.00378844
0.00411611
0.00387404
0.00105426
0.000953894
0.000877758
0.000817153
0.000766392
0.000720677
0.000676382
0.000630421
0.000578335
0.000547978
0.000582086
0.000890519
0.000476912
0.00240999
0.00791109
0.00455768
0.00526572
0.00601262
0.00612422
0.00602635
0.00593563
0.0060369
0.00626265
0.00663431
0.00707083
0.00748496
0.00778428
0.00791402
0.00781259
0.00728615
0.00616436
0.00585674
0.00584055
0.00590603
0.00595704
0.00593512
0.005697
0.00473006
0.0042377
0.00393242
0.0036746
0.00338903
0.00305137
0.00265019
0.00218613
0.00167362
0.00116039
0.000845638
0.000906362
0.000561618
0.000558856
0.00068141
0.000757253
0.00275423
0.00986897
0.00640779
0.00521822
0.0056985
0.00599583
0.00591302
0.00584426
0.00591941
0.00611483
0.00646873
0.00693198
0.007375
0.0076647
0.00773882
0.00763548
0.00745805
0.00731408
0.00734057
0.00739084
0.00736768
0.00726276
0.00708343
0.00680614
0.0063614
0.00595897
0.00559927
0.00523551
0.00483196
0.00437023
0.0038323
0.00321016
0.00251687
0.00180303
0.00126594
0.00102538
0.000723655
0.000638625
0.000947037
0.000782868
0.00306928
0.0112531
0.00910237
0.0069362
0.00641559
0.00642476
0.00629378
0.0061025
0.00602759
0.00617785
0.00656546
0.00708826
0.00757059
0.00784856
0.0078633
0.00771326
0.00761964
0.00774845
0.00798933
0.008093
0.00799795
0.0077612
0.00743645
0.00704757
0.00661706
0.00620917
0.00581821
0.00543067
0.00503475
0.00461048
0.00411755
0.00354739
0.00291227
0.00225129
0.00170106
0.0013319
0.00103371
0.000947053
0.000967274
0.000833932
0.00313172
0.0100205
0.00895668
0.00833919
0.0078615
0.00729024
0.00661981
0.00615401
0.00605607
0.00634356
0.00690845
0.00755449
0.00805933
0.0082613
0.00815405
0.00793264
0.00788481
0.00810298
0.00829274
0.00816806
0.00782439
0.00736066
0.00684515
0.00632752
0.00584638
0.00541392
0.00501233
0.00463089
0.00427527
0.00395462
0.00364327
0.00325824
0.0028323
0.00237805
0.00195862
0.0017725
0.00175444
0.00208364
0.00284096
0.00135578
0.00305049
0.00362133
0.00387458
0.0040119
0.00408354
0.00417854
0.00443101
0.00496298
0.00578457
0.00677414
0.00773284
0.00845626
0.00878531
0.00866946
0.00827292
0.00802919
0.00799817
0.00795453
0.00773003
0.00728709
0.00670791
0.00608441
0.00548409
0.00494431
0.00447106
0.00404617
0.00364802
0.00326733
0.00290527
0.00256659
0.00227281
0.00204025
0.00186381
0.00175937
0.00173829
0.00179348
0.00185661
0.00185824
0.00176918
0.0012985
0.000933044
0.00187316
0.00318716
0.00468732
0.00620739
0.00758742
0.00867715
0.00937129
0.00964453
0.00952505
0.00906097
0.00838986
0.00773111
0.00732785
0.00701193
0.00658936
0.00605138
0.00545304
0.00485781
0.00432082
0.00385787
0.0034589
0.00310664
0.00278915
0.0025052
0.00226127
0.00206735
0.00192829
0.00183447
0.00177796
0.00175607
0.00176798
0.0018066
0.00184927
0.00185401
0.00179231
0.00166166
0.00111334
0.00215324
0.00551131
0.00742416
0.00854662
0.00926429
0.00963115
0.00962788
0.00930777
0.00871368
0.00794615
0.00715153
0.00646528
0.00589404
0.00538763
0.00489019
0.0044176
0.00399716
0.00363658
0.0033316
0.00306618
0.00282821
0.00261105
0.0024136
0.00223882
0.00209114
0.00197396
0.00188709
0.00182927
0.00179959
0.00179786
0.00182414
0.00187536
0.00193958
0.0019942
0.00200928
0.00208176
0.00220565
0.00113808
0.00205626
0.00216324
0.00224888
0.00245719
0.00239083
0.00226066
0.00213125
0.00200273
0.00186905
0.00172499
0.00156466
0.00139602
0.00123414
0.00109515
0.0009885
0.000912627
0.000858931
0.000819565
0.000789529
0.00076609
0.000747821
0.000733812
0.00072386
0.000718121
0.000716866
0.000720325
0.000728593
0.000741655
0.000759401
0.000781831
0.000809204
0.000842035
0.000881155
0.000927558
0.000981607
0.00104459
0.00108075
0.0010618
0.0010015
0.000943865
)
;

boundaryField
{
    floor
    {
        type            nutkWallFunction;
        Cmu             0.09;
        kappa           0.41;
        E               9.8;
        value           nonuniform List<scalar> 
29
(
0.000158678
6.69668e-05
8.35018e-05
9.44444e-05
9.43064e-05
9.17952e-05
8.82625e-05
8.36214e-05
7.88848e-05
7.45171e-05
7.05988e-05
6.71068e-05
6.39959e-05
6.12029e-05
5.86591e-05
5.63061e-05
5.40031e-05
5.15151e-05
4.8668e-05
4.36161e-05
4.36161e-05
4.99161e-05
5.38278e-05
5.67417e-05
0.000158678
6.69668e-05
7.12973e-05
0.000140658
0.000193123
)
;
    }
    ceiling
    {
        type            nutkWallFunction;
        Cmu             0.09;
        kappa           0.41;
        E               9.8;
        value           nonuniform List<scalar> 
43
(
0.000239394
0.000250969
0.000260194
0.000282559
0.000275523
0.000261599
0.000247659
0.000233714
0.000219104
0.00020323
0.00018539
0.000166403
0.000147935
0.00013186
0.000119369
0.000110389
0.000103982
9.92554e-05
9.56317e-05
9.27927e-05
9.05728e-05
8.88663e-05
8.76516e-05
8.69503e-05
8.67971e-05
8.72205e-05
8.82313e-05
8.98251e-05
9.19851e-05
9.47065e-05
9.80149e-05
0.000101966
0.000106649
0.000112174
0.000118569
0.000125969
0.000130197
0.000127983
0.000120911
0.000114105
0.000345395
0.000404393
0.000249759
)
;
    }
    sWall
    {
        type            nutkWallFunction;
        Cmu             0.09;
        kappa           0.41;
        E               9.8;
        value           uniform 0.000239458;
    }
    nWall
    {
        type            nutkWallFunction;
        Cmu             0.09;
        kappa           0.41;
        E               9.8;
        value           nonuniform List<scalar> 6(9.17157e-05 9.48237e-05 0.000100989 0.000133998 0.000136872 0.00011411);
    }
    sideWalls
    {
        type            empty;
    }
    glass1
    {
        type            nutkWallFunction;
        Cmu             0.09;
        kappa           0.41;
        E               9.8;
        value           nonuniform List<scalar> 9(0.000130194 0.000173659 0.000209368 0.000243447 0.000278103 0.000314689 0.000347757 0.000354278 0.000345821);
    }
    glass2
    {
        type            nutkWallFunction;
        Cmu             0.09;
        kappa           0.41;
        E               9.8;
        value           nonuniform List<scalar> 2(0.000161912 0.000155379);
    }
    sun
    {
        type            nutkWallFunction;
        Cmu             0.09;
        kappa           0.41;
        E               9.8;
        value           nonuniform List<scalar> 
14
(
0.000130092
0.000141836
0.000145012
0.000151957
0.000158334
0.000164273
0.000170046
0.000176
0.000181058
0.000184464
0.000185511
0.000183505
0.000178042
0.000169315
)
;
    }
    heatsource1
    {
        type            nutkWallFunction;
        Cmu             0.09;
        kappa           0.41;
        E               9.8;
        value           nonuniform List<scalar> 3(6.7179e-05 8.24409e-05 9.17165e-05);
    }
    heatsource2
    {
        type            nutkWallFunction;
        Cmu             0.09;
        kappa           0.41;
        E               9.8;
        value           nonuniform List<scalar> 4(0.000163128 9.36129e-05 9.36129e-05 0.000162026);
    }
    Table_master
    {
        type            nutkWallFunction;
        Cmu             0.09;
        kappa           0.41;
        E               9.8;
        value           nonuniform List<scalar> 9(0.000115523 0.000103263 9.31063e-05 8.46759e-05 7.76041e-05 7.15839e-05 6.63807e-05 6.18719e-05 5.81411e-05);
    }
    Table_slave
    {
        type            nutkWallFunction;
        Cmu             0.09;
        kappa           0.41;
        E               9.8;
        value           nonuniform List<scalar> 9(0.000127086 0.00011528 0.00010623 9.89604e-05 9.28231e-05 8.72547e-05 8.18189e-05 7.61332e-05 6.96284e-05);
    }
    inlet
    {
        type            calculated;
        value           uniform 0.000167705;
    }
    outlet
    {
        type            calculated;
        value           nonuniform List<scalar> 2(0.00205626 0.00216324);
    }
}


// ************************************************************************* //
