/*--------------------------------*- C++ -*----------------------------------*\
  =========                 |
  \\      /  F ield         | OpenFOAM: The Open Source CFD Toolbox
   \\    /   O peration     | Website:  https://openfoam.org
    \\  /    A nd           | Version:  6
     \\/     M anipulation  |
\*---------------------------------------------------------------------------*/
FoamFile
{
    version     2.0;
    format      ascii;
    class       surfaceScalarField;
    location    "100";
    object      phi;
}
// * * * * * * * * * * * * * * * * * * * * * * * * * * * * * * * * * * * * * //

dimensions      [1 0 -1 0 0 0 0];

internalField   nonuniform List<scalar> 
852
(
-0.0029713
0.00302802
-0.00403807
0.00106678
-0.00486505
0.000826992
-0.00552936
0.000664311
-0.00600788
0.000478534
-0.00628103
0.000273149
-0.00632403
4.30147e-05
-0.00610743
-0.000216596
-0.00561546
-0.000491971
-0.00487076
-0.000744689
-0.00393919
-0.000931567
-0.00291835
-0.00102083
-0.00190709
-0.00101126
-0.000958637
-0.000948445
-0.000957229
-0.000724264
0.000726698
-0.000300451
-0.000423819
0.000454902
-0.000755348
0.00105946
-0.000604554
0.00147705
-0.000417581
0.00174647
-0.000269413
0.00189553
-0.000149052
0.00196957
-7.40392e-05
0.00201365
-4.40817e-05
0.00204522
-3.15713e-05
0.00206974
-2.45319e-05
0.00208926
-1.95387e-05
0.00210066
-1.14227e-05
0.00209
1.06278e-05
0.00202292
6.70312e-05
0.00184008
0.000182779
0.00149602
0.000343974
0.000965328
0.000530593
0.000968162
-0.00211224
0.00529341
-0.00312688
0.00208143
-0.00395625
0.00165637
-0.0045956
0.00130367
-0.00505437
0.000937308
-0.00532401
0.000542794
-0.00537842
9.7421e-05
-0.00518606
-0.000408956
-0.00473741
-0.000940615
-0.00406665
-0.00141546
-0.0032469
-0.00175132
-0.00237469
-0.00189304
-0.0015468
-0.00183914
-0.000882753
-0.00161249
-0.00061286
-0.00122711
-3.24821e-05
-0.000580421
-3.25406e-05
0.000393976
0.000339747
0.00100384
-0.00103368
0.00136896
-0.00112046
0.00166589
-0.000901468
0.00189006
-0.000641737
0.00202696
-0.000406301
0.00205075
-0.000172838
0.0020562
-7.94726e-05
0.00206288
-5.07524e-05
0.00206873
-3.74158e-05
0.00207288
-2.86847e-05
0.00207576
-2.24259e-05
0.00207655
-1.22252e-05
0.00206905
1.80976e-05
0.00201495
0.000121098
0.00178682
0.000410849
0.00138211
0.000748602
0.000832261
0.00108033
0.00180854
-0.00146948
0.0069973
-0.00232656
0.00293851
-0.00303952
0.00236933
-0.00356754
0.0018317
-0.00395391
0.00132368
-0.00419052
0.0007794
-0.00423884
0.000145749
-0.00404805
-0.000599747
-0.00361441
-0.00137427
-0.00299188
-0.00203799
-0.00226082
-0.00248239
-0.00151132
-0.00264255
-0.000816369
-0.0025341
-0.00025336
-0.0021755
0.000130268
-0.00161074
0.000366765
-0.00081691
0.000334235
0.00183088
-0.00148371
0.00208494
-0.00128773
0.00210132
-0.00113682
0.00213186
-0.000931993
0.00217824
-0.000688108
0.0022326
-0.000460649
0.00205993
0.00198062
0.00193004
0.00189279
0.00186426
0.00184199
0.00182991
0.00184813
0.00196933
0.00163466
0.000745452
0.00122916
0.00115402
0.00070056
0.00160881
0.00252209
-0.00102042
0.00832118
-0.00168852
0.00360662
-0.00213301
0.00281383
-0.00245647
0.00215517
-0.00269919
0.0015664
-0.00284862
0.000928837
-0.00284321
0.000140336
-0.00260987
-0.000833093
-0.0021726
-0.00181154
-0.00161355
-0.00259705
-0.00101043
-0.00308552
-0.000430864
-0.00322212
9.28846e-05
-0.00305785
0.000544691
-0.00262731
0.000950957
-0.002017
0.00143584
-0.00130179
0.00243477
-0.00066469
0.0031124
-0.000670759
0.00264376
-0.00101505
0.00246674
-0.0011107
0.00230106
-0.000971126
0.00215928
-0.000790204
0.00206289
-0.000591702
0.0019724
-0.000370151
0.00209344
-0.000121173
0.0021348
-4.15092e-05
0.00214584
-1.11752e-05
0.00213373
1.19606e-05
0.00209174
4.18525e-05
0.00200821
8.33787e-05
0.00186476
0.000143288
0.00163026
0.000234337
0.00124267
0.000387408
0.00117019
0.000817872
0.000924444
0.00139967
0.000544216
0.00198892
0.00308387
-0.000714086
0.0093971
-0.00121644
0.00410898
-0.00127015
0.00286755
-0.00130319
0.00218821
-0.00133153
0.00159475
-0.00133138
0.000928684
-0.0011834
-7.62949e-06
-0.000845037
-0.00117146
-0.000411285
-0.0022453
3.45175e-05
-0.00304288
0.00043337
-0.0034844
0.000764258
-0.00355303
0.00103071
-0.00332432
0.00126521
-0.00286182
0.00150353
-0.00225532
0.00180787
-0.00160612
0.00221467
-0.00107148
0.00241126
-0.000867343
0.00228205
-0.000885821
0.00205341
-0.000882049
0.00184763
-0.000765332
0.00166972
-0.000612281
0.00153031
-0.000452292
0.00144402
-0.000283847
0.00145203
-0.000129178
0.00145903
-4.85054e-05
0.00145977
-1.19142e-05
0.00145423
1.74962e-05
0.00143743
5.86402e-05
0.00140004
0.000120753
0.00133057
0.000212736
0.00121658
0.000348293
0.00105753
0.000546412
0.000953619
0.000921717
0.000868457
0.00148474
0.000664874
0.00219238
0.000766096
0.00298251
-0.00103084
0.00179664
-0.00149405
0.000462949
-0.00144823
-0.000626139
0.010434
-0.000971347
0.00445419
-0.00050634
0.00240255
-0.000116675
0.00179856
0.000160546
0.00131754
0.000426343
0.000662899
0.000807628
-0.000388902
0.0012291
-0.00159293
0.0015853
-0.00260152
0.00182244
-0.00328005
0.00193532
-0.0035973
0.00195803
-0.00357576
0.00191643
-0.00328273
0.00185064
-0.00279603
0.00179998
-0.00220467
0.00179555
-0.00160169
0.00182825
-0.00110418
0.00178067
-0.000819755
0.00160321
-0.000708343
0.0013587
-0.000637528
0.0011338
-0.000540417
0.000950863
-0.000429341
0.000816647
-0.000318071
0.000740764
-0.000207962
0.000725977
-0.000114395
0.000739751
-6.2287e-05
0.000765314
-3.74903e-05
0.000795462
-1.26712e-05
0.000823002
3.10762e-05
0.000842198
0.000101525
0.000850776
0.00020412
0.000848554
0.000350468
0.000838132
0.000556778
0.000878257
0.000881522
0.00102433
0.00133858
0.00128062
0.00193598
0.00182003
0.00244296
0.00208256
0.00153398
0.00166347
0.000881934
0.000270988
-0.00068463
0.0115735
-0.000567166
0.00433673
0.00061458
0.00122082
0.00137568
0.00103747
0.00190922
0.000784019
0.00248717
8.49667e-05
0.0030886
-0.000990315
0.0035017
-0.00200604
0.00367299
-0.00277284
0.00361618
-0.00322327
0.00337457
-0.00335573
0.00301157
-0.0032128
0.00258804
-0.00285921
0.00216024
-0.00236823
0.00177417
-0.0018186
0.0014535
-0.00128101
0.00120044
-0.000851106
0.000970308
-0.000589617
0.000727069
-0.000465092
0.000487203
-0.000397652
0.000283267
-0.000336473
0.000128283
-0.000274353
2.42909e-05
-0.000214081
-2.63738e-05
-0.000157305
-2.78884e-05
-0.000112893
3.14232e-07
-9.0508e-05
4.41628e-05
-8.1363e-05
0.00010067
-6.92092e-05
0.000168729
-3.70182e-05
0.000242337
2.78758e-05
0.000321982
0.000124428
0.000415874
0.000256523
0.000533372
0.00043922
0.000713511
0.000701312
0.00101444
0.00103757
0.00149449
0.00145582
0.00226757
0.00166975
0.00286222
0.000939199
0.00296645
0.000777591
0.00330105
0.00263279
0.00944947
0.00331379
0.00365573
0.0038075
0.00072712
0.00433199
0.000513001
0.00493898
0.000177054
0.00560507
-0.000581106
0.00601566
-0.00140091
0.00607114
-0.00206156
0.00578219
-0.00248394
0.00521426
-0.0026554
0.00445919
-0.0026007
0.00361483
-0.00236847
0.0027626
-0.00200699
0.00196575
-0.00157139
0.00127543
-0.00112828
0.000710645
-0.000716218
0.00028956
-0.000430009
-1.91271e-05
-0.000280916
-0.00025999
-0.000224218
-0.00045322
-0.000204416
-0.000602767
-0.000186924
-0.000709998
-0.000167125
-0.0007776
-0.000146488
-0.000807688
-0.000127232
-0.000806504
-0.000114099
-0.000786514
-0.000110525
-0.000755696
-0.000112213
-0.000713424
-0.000111517
-0.000651183
-9.92996e-05
-0.000561534
-6.18176e-05
-0.000450818
1.36629e-05
-0.000317309
0.000122961
-0.000142487
0.000264338
0.000105005
0.000453749
0.000458206
0.00068429
0.000991287
0.000922642
0.00169899
0.000961928
0.00203998
0.000598092
0.00123244
0.00158501
0.00477863
0.0100078
0.0136559
0.0127783
0.00160481
0.0121857
0.00110554
0.0116485
0.00071424
0.0109379
0.000129484
0.00994071
-0.000403787
0.00871322
-0.000834188
0.00734215
-0.00111297
0.00590861
-0.00122194
0.00449325
-0.00118539
0.00317024
-0.00104548
0.00198231
-0.00081906
0.000956596
-0.000545659
0.000128044
-0.000299713
-0.000463464
-0.00012469
-0.000832198
-6.12594e-05
-0.00106319
-4.99078e-05
-0.00122718
-6.02224e-05
-0.00135659
-7.50063e-05
-0.0014579
-8.56148e-05
-0.00153415
-9.08826e-05
-0.00158859
-9.20675e-05
-0.00162529
-9.05555e-05
-0.00165149
-8.79211e-05
-0.00167773
-8.43104e-05
-0.00171355
-7.64251e-05
-0.00176686
-5.82477e-05
-0.00184634
-1.9857e-05
-0.0019558
4.75905e-05
-0.00209296
0.000150778
-0.00227443
0.000304376
-0.00253955
0.000529395
-0.00293712
0.000851258
-0.00354385
0.00129095
-0.00444755
0.00182626
-0.00577407
0.00228838
-0.00749009
0.00231403
-0.00715067
0.00124551
-0.00210359
0.00718648
0.00258814
0.00616195
0.00212974
0.00591167
0.000964052
0.00559625
0.000444431
0.00504522
0.000146923
0.00429317
-8.23261e-05
0.00339818
-0.000218065
0.00242829
-0.000252072
0.00144279
-0.00019988
0.000483265
-8.59302e-05
-0.000385433
4.96963e-05
-0.00106318
0.000132123
-0.00151104
0.000148175
-0.00177298
0.000137273
-0.00193482
0.000100597
-0.00204621
6.1488e-05
-0.00213525
2.88218e-05
-0.00221464
4.37701e-06
-0.00228674
-1.3518e-05
-0.00235155
-2.60846e-05
-0.00241016
-3.34679e-05
-0.00246513
-3.56062e-05
-0.00252055
-3.25248e-05
-0.00258118
-2.37078e-05
-0.00265024
-7.38975e-06
-0.00272687
1.83514e-05
-0.00280516
5.83964e-05
-0.00287884
0.000121229
-0.00294815
0.000220051
-0.00301476
0.000370933
-0.00308007
0.000594651
-0.00314557
0.00091671
-0.00320022
0.00134554
-0.0032013
0.00182728
-0.00310949
0.00219651
-0.0027813
0.00198579
-0.00149773
-3.81004e-05
-0.0035317
-0.00129136
0.00393126
-0.00060906
0.00144737
-0.000539417
0.000894357
-0.00059844
0.000503448
-0.000723613
0.000272121
-0.000952912
0.000147006
-0.00127877
0.000107836
-0.00166059
0.000129801
-0.00203026
0.000169839
-0.00232258
0.00020643
-0.00250059
0.000227734
-0.00259244
0.000223995
-0.00264073
0.000196485
-0.00266467
0.000161228
-0.00268896
0.000124892
-0.00272184
9.43738e-05
-0.00276388
7.08658e-05
-0.0028127
5.31976e-05
-0.00286733
4.10995e-05
-0.00292577
3.23563e-05
-0.00298531
2.60528e-05
-0.00304269
2.17656e-05
-0.00309454
1.93106e-05
-0.00313737
1.91117e-05
-0.00316717
2.23884e-05
-0.00318158
3.27386e-05
-0.00317724
5.403e-05
-0.00314696
9.09205e-05
-0.00307784
0.000150893
-0.00295009
0.000243147
-0.00273703
0.000381546
-0.00240852
0.000588163
-0.00193471
0.000871674
-0.00127803
0.00117056
-0.000280099
0.00119853
0.0011127
0.000592948
0.00166757
-0.000593001
-0.00178801
-0.0089216
-0.0119991
-0.00803493
-0.00656786
-0.00566005
-0.00514764
-0.00487
-0.0047202
-0.00461174
-0.00448317
-0.00431627
-0.00411439
-0.00389275
-0.00367626
-0.0034885
-0.00333695
-0.00322248
-0.00313909
-0.00307967
-0.00303828
-0.00300929
-0.00298927
-0.00297574
-0.00296663
-0.00296004
-0.00295365
-0.00294391
-0.0029237
-0.00288201
-0.00280319
-0.00266412
-0.00243247
-0.00206207
-0.00148468
-0.000623394
0.000537116
0.00172566
0.00230832
0.00170445
)
;

boundaryField
{
    floor
    {
        type            calculated;
        value           nonuniform List<scalar> 
29
(
0
0
0
0
0
0
0
0
0
0
0
0
0
0
0
0
0
0
0
0
-2.96167e-06
-8.25346e-06
-1.31312e-05
-1.77096e-05
-1.39727e-06
-2.45451e-06
-7.05186e-06
-7.41433e-06
-6.8565e-06
)
;
    }
    ceiling
    {
        type            calculated;
        value           nonuniform List<scalar> 
43
(
-3.49252e-05
-3.38649e-05
-3.28302e-05
-1.96263e-05
-1.33574e-05
-8.87867e-06
-5.44496e-06
-2.75582e-06
-5.9077e-07
1.26577e-06
2.96499e-06
4.57614e-06
6.11192e-06
7.52395e-06
8.73145e-06
9.68946e-06
1.04261e-05
1.09956e-05
1.14459e-05
1.18085e-05
1.2102e-05
1.2339e-05
1.2522e-05
1.2648e-05
1.27122e-05
1.27109e-05
1.26434e-05
1.25123e-05
1.23235e-05
1.20839e-05
1.1799e-05
1.14747e-05
1.11174e-05
1.07372e-05
1.03577e-05
1.00074e-05
9.95551e-06
1.02586e-05
1.0838e-05
1.22575e-05
1.06397e-05
7.63429e-06
-5.17838e-05
)
;
    }
    sWall
    {
        type            calculated;
        value           uniform -0.000236895;
    }
    nWall
    {
        type            calculated;
        value           nonuniform List<scalar> 6(-4.60963e-05 -5.5837e-05 -6.37252e-05 -6.96281e-05 -7.61435e-05 -9.58336e-05);
    }
    sideWalls
    {
        type            empty;
        value           nonuniform 0();
    }
    glass1
    {
        type            calculated;
        value           nonuniform List<scalar> 9(-5.67188e-05 -0.000153138 -0.000234409 -0.000303464 -0.00036183 -0.000410755 -0.000454897 -0.000508732 -0.000569012);
    }
    glass2
    {
        type            calculated;
        value           nonuniform List<scalar> 2(-0.00024523 -0.000268523);
    }
    sun
    {
        type            calculated;
        value           uniform 0;
    }
    heatsource1
    {
        type            calculated;
        value           nonuniform List<scalar> 3(2.03649e-07 2.03646e-07 2.03672e-07);
    }
    heatsource2
    {
        type            calculated;
        value           nonuniform List<scalar> 4(5.11136e-08 5.12477e-08 0 0);
    }
    Table_master
    {
        type            calculated;
        value           nonuniform List<scalar> 9(-1.52789e-07 -1.52898e-07 -1.52939e-07 -1.52967e-07 -1.52989e-07 -1.53005e-07 -1.53017e-07 -1.53015e-07 -1.52971e-07);
    }
    Table_slave
    {
        type            calculated;
        value           nonuniform List<scalar> 9(1.52688e-07 1.52734e-07 1.52735e-07 1.52738e-07 1.52745e-07 1.52762e-07 1.52794e-07 1.52847e-07 1.52931e-07);
    }
    inlet
    {
        type            calculated;
        value           uniform -0.00816995;
    }
    outlet
    {
        type            calculated;
        value           nonuniform List<scalar> 2(0.00919348 0.0031114);
    }
}


// ************************************************************************* //
