/*--------------------------------*- C++ -*----------------------------------*\
  =========                 |
  \\      /  F ield         | OpenFOAM: The Open Source CFD Toolbox
   \\    /   O peration     | Website:  https://openfoam.org
    \\  /    A nd           | Version:  6
     \\/     M anipulation  |
\*---------------------------------------------------------------------------*/
FoamFile
{
    version     2.0;
    format      ascii;
    class       volScalarField;
    location    "100";
    object      T;
}
// * * * * * * * * * * * * * * * * * * * * * * * * * * * * * * * * * * * * * //

dimensions      [0 0 0 1 0 0 0];

internalField   nonuniform List<scalar> 
459
(
303.467
303.209
303.197
303.194
303.191
303.187
303.183
303.178
303.171
303.162
303.15
303.138
303.129
303.125
303.127
303.271
303.243
303.234
303.237
303.241
303.245
303.248
303.252
303.255
303.259
303.263
303.268
303.274
303.282
303.292
303.304
303.32
303.345
303.396
303.644
303.25
303.229
303.232
303.236
303.238
303.237
303.233
303.222
303.202
303.175
303.149
303.128
303.117
303.115
303.116
303.122
303.275
303.227
303.223
303.23
303.237
303.244
303.245
303.246
303.246
303.246
303.247
303.249
303.253
303.258
303.266
303.278
303.297
303.328
303.389
303.829
303.3
303.262
303.274
303.289
303.302
303.309
303.31
303.295
303.261
303.213
303.166
303.131
303.113
303.112
303.116
303.119
303.2
303.204
303.219
303.237
303.254
303.266
303.263
303.26
303.258
303.255
303.254
303.254
303.256
303.26
303.268
303.28
303.298
303.328
303.391
304.016
303.361
303.296
303.312
303.34
303.368
303.392
303.403
303.384
303.33
303.252
303.18
303.129
303.107
303.108
303.12
303.132
303.149
303.174
303.206
303.239
303.27
303.295
303.313
303.328
303.339
303.348
303.356
303.364
303.372
303.38
303.387
303.395
303.361
303.342
303.348
303.398
304.197
303.44
303.335
303.343
303.378
303.421
303.465
303.492
303.467
303.388
303.277
303.182
303.12
303.097
303.103
303.126
303.153
303.184
303.22
303.259
303.298
303.333
303.361
303.382
303.401
303.415
303.427
303.436
303.444
303.449
303.451
303.451
303.446
303.42
303.386
303.373
303.406
303.546
303.631
303.629
304.36
303.543
303.407
303.39
303.42
303.467
303.53
303.556
303.509
303.403
303.275
303.165
303.097
303.079
303.098
303.14
303.187
303.235
303.284
303.331
303.374
303.409
303.437
303.458
303.474
303.487
303.498
303.506
303.51
303.512
303.509
303.503
303.491
303.466
303.428
303.402
303.415
303.489
303.529
303.579
304.509
303.709
303.575
303.539
303.544
303.574
303.622
303.605
303.51
303.366
303.216
303.103
303.049
303.053
303.101
303.172
303.245
303.312
303.371
303.421
303.461
303.492
303.515
303.532
303.545
303.556
303.564
303.569
303.569
303.565
303.558
303.548
303.532
303.506
303.469
303.438
303.435
303.468
303.496
303.537
304.725
304.131
303.989
303.898
303.842
303.822
303.757
303.616
303.421
303.222
303.066
302.982
302.977
303.035
303.13
303.241
303.338
303.415
303.475
303.516
303.546
303.569
303.586
303.598
303.607
303.614
303.618
303.619
303.616
303.61
303.599
303.587
303.571
303.548
303.515
303.489
303.485
303.512
303.546
303.683
305.035
304.756
304.54
304.333
304.141
303.948
303.652
303.313
303.024
302.841
302.777
302.814
302.926
303.075
303.227
303.373
303.467
303.526
303.567
303.596
303.617
303.633
303.644
303.652
303.657
303.659
303.659
303.656
303.652
303.648
303.642
303.637
303.635
303.637
303.647
303.671
303.71
303.75
303.774
303.828
296.954
298.255
299.265
299.881
300.444
301.012
301.556
302.038
302.443
302.775
303.067
303.294
303.433
303.524
303.58
303.617
303.642
303.66
303.673
303.682
303.688
303.691
303.693
303.694
303.693
303.692
303.69
303.688
303.687
303.686
303.688
303.693
303.705
303.725
303.753
303.783
303.809
303.839
297.898
299.042
300.124
300.891
301.494
301.987
302.39
302.732
303.012
303.229
303.39
303.503
303.577
303.625
303.656
303.677
303.692
303.702
303.709
303.713
303.716
303.718
303.72
303.72
303.72
303.72
303.719
303.718
303.718
303.718
303.719
303.723
303.731
303.743
303.761
303.785
303.79
303.821
300.183
300.135
300.133
301.26
301.928
302.412
302.76
303.014
303.201
303.343
303.453
303.536
303.596
303.637
303.664
303.682
303.694
303.702
303.707
303.711
303.714
303.717
303.719
303.721
303.723
303.725
303.726
303.728
303.729
303.73
303.731
303.732
303.734
303.736
303.74
303.747
303.76
303.769
303.773
303.816
)
;

boundaryField
{
    floor
    {
        type            wallHeatTransfer;
        Tinf            uniform 305.2;
        alphaWall       uniform 0.24;
        value           nonuniform List<scalar> 
29
(
303.314
303.599
303.53
303.498
303.501
303.51
303.521
303.534
303.549
303.563
303.578
303.592
303.606
303.621
303.637
303.654
303.673
303.696
303.729
303.793
303.793
303.758
303.743
303.739
303.314
303.599
303.589
303.398
303.306
)
;
    }
    ceiling
    {
        type            wallHeatTransfer;
        Tinf            uniform 303.2;
        alphaWall       uniform 0.24;
        value           nonuniform List<scalar> 
43
(
300.374
300.32
300.313
301.366
302
302.458
302.787
303.026
303.201
303.333
303.433
303.507
303.558
303.591
303.612
303.624
303.632
303.637
303.64
303.642
303.643
303.644
303.645
303.647
303.648
303.65
303.652
303.654
303.657
303.659
303.662
303.665
303.668
303.673
303.679
303.688
303.701
303.708
303.709
303.744
304.95
304.694
298.219
)
;
    }
    sWall
    {
        type            wallHeatTransfer;
        Tinf            uniform 315.2;
        alphaWall       uniform 0.36;
        value           uniform 301.567;
    }
    nWall
    {
        type            wallHeatTransfer;
        Tinf            uniform 307.2;
        alphaWall       uniform 0.36;
        value           nonuniform List<scalar> 6(304.318 304.262 304.199 304.334 304.312 304.377);
    }
    sideWalls
    {
        type            empty;
    }
    glass1
    {
        type            wallHeatTransfer;
        Tinf            uniform 315.2;
        alphaWall       uniform 4.3;
        value           nonuniform List<scalar> 9(311.489 310.875 310.48 310.174 309.915 309.677 309.499 309.569 309.796);
    }
    glass2
    {
        type            wallHeatTransfer;
        Tinf            uniform 307.2;
        alphaWall       uniform 4.3;
        value           nonuniform List<scalar> 2(305.924 306.005);
    }
    sun
    {
        type            wallHeatTransfer;
        Tinf            uniform 305.2;
        alphaWall       uniform 0.24;
        value           nonuniform List<scalar> 
14
(
303.65
303.405
303.391
303.381
303.372
303.363
303.355
303.346
303.335
303.324
303.312
303.303
303.299
303.302
)
;
    }
    heatsource1
    {
        type            fixedGradient;
        gradient        uniform 0;
    }
    heatsource2
    {
        type            fixedGradient;
        gradient        uniform 0;
    }
    Table_master
    {
        type            zeroGradient;
    }
    Table_slave
    {
        type            zeroGradient;
    }
    inlet
    {
        type            fixedValue;
        value           uniform 295.15;
    }
    outlet
    {
        type            zeroGradient;
    }
}


// ************************************************************************* //
