/*--------------------------------*- C++ -*----------------------------------*\
  =========                 |
  \\      /  F ield         | OpenFOAM: The Open Source CFD Toolbox
   \\    /   O peration     | Website:  https://openfoam.org
    \\  /    A nd           | Version:  6
     \\/     M anipulation  |
\*---------------------------------------------------------------------------*/
FoamFile
{
    version     2.0;
    format      ascii;
    class       volVectorField;
    location    "100";
    object      U;
}
// * * * * * * * * * * * * * * * * * * * * * * * * * * * * * * * * * * * * * //

dimensions      [0 1 -1 0 0 0 0];

internalField   nonuniform List<vector> 
459
(
(0.031754 0.0864831 0)
(-0.16785 0.0265358 0)
(-0.193957 0.0189202 0)
(-0.226308 0.0135514 0)
(-0.250981 0.00780584 0)
(-0.267398 0.00180393 0)
(-0.274356 -0.0046361 0)
(-0.269989 -0.011646 0)
(-0.253875 -0.0192118 0)
(-0.226366 -0.026412 0)
(-0.189567 -0.0320847 0)
(-0.146922 -0.0353621 0)
(-0.102466 -0.0363082 0)
(-0.0621439 -0.0363407 0)
(-0.0408793 -0.0374211 0)
(-0.010451 0.00718405 0)
(-0.0212994 -0.0210229 0)
(0.00857605 -0.0322813 0)
(0.0331807 -0.0248152 0)
(0.0539807 -0.0173976 0)
(0.0696769 -0.0115787 0)
(0.0791979 -0.00711193 0)
(0.0840299 -0.004752 0)
(0.0862706 -0.00381469 0)
(0.0875689 -0.0034451 0)
(0.088626 -0.00324743 0)
(0.0895538 -0.00309235 0)
(0.0902528 -0.00286166 0)
(0.0903817 -0.00230877 0)
(0.089022 -0.000869883 0)
(0.0843166 0.00223445 0)
(0.0740166 0.00649952 0)
(0.0573398 0.012614 0)
(0.0162574 0.0286006 0)
(0.206059 0.176346 0)
(-0.15518 0.0685155 0)
(-0.154006 0.0543275 0)
(-0.186487 0.0435575 0)
(-0.210126 0.031797 0)
(-0.226132 0.0188985 0)
(-0.233402 0.00423618 0)
(-0.229847 -0.0125253 0)
(-0.215179 -0.0302328 0)
(-0.19019 -0.0463377 0)
(-0.157335 -0.0581101 0)
(-0.120361 -0.0635775 0)
(-0.0833751 -0.0624917 0)
(-0.051316 -0.0559573 0)
(-0.0299708 -0.0451918 0)
(-0.0129082 -0.0218817 0)
(-0.00854169 0.0195441 0)
(0.0440675 0.0364621 0)
(0.0402991 -0.0297585 0)
(0.0509223 -0.0403448 0)
(0.0648295 -0.0340319 0)
(0.07661 -0.0241713 0)
(0.0848282 -0.0148956 0)
(0.0884618 -0.00612821 0)
(0.0890082 -0.00116617 0)
(0.0888016 0.000814961 0)
(0.0888674 0.00152976 0)
(0.089113 0.00180087 0)
(0.0893123 0.00192268 0)
(0.0894096 0.00221754 0)
(0.0893309 0.00331364 0)
(0.08831 0.00646859 0)
(0.0832535 0.0150924 0)
(0.0706859 0.0244102 0)
(0.0535259 0.0350619 0)
(-0.0129611 0.0595679 0)
(0.366466 0.263212 0)
(-0.171024 0.107975 0)
(-0.113559 0.0867371 0)
(-0.143918 0.0675444 0)
(-0.163861 0.0482905 0)
(-0.177935 0.0275845 0)
(-0.184704 0.00400395 0)
(-0.180809 -0.0227917 0)
(-0.166155 -0.0507082 0)
(-0.142395 -0.0752249 0)
(-0.112531 -0.0921408 0)
(-0.0804559 -0.0987699 0)
(-0.0493081 -0.095146 0)
(-0.0221956 -0.0821486 0)
(-0.00186148 -0.0608925 0)
(0.0136521 -0.0287806 0)
(0.0202587 0.0161232 0)
(0.115 -0.0507985 0)
(0.0889747 -0.0568482 0)
(0.0868809 -0.052416 0)
(0.0900782 -0.0425131 0)
(0.0927216 -0.0312135 0)
(0.0946115 -0.0218709 0)
(0.0937518 -0.0172386 0)
(0.0881908 -0.0121304 0)
(0.0838799 -0.00929486 0)
(0.0817698 -0.0076536 0)
(0.0806532 -0.00659792 0)
(0.079746 -0.00586998 0)
(0.0789867 -0.00521633 0)
(0.0790311 -0.0040649 0)
(0.0818773 0.000216426 0)
(0.0793737 0.0215316 0)
(0.0645463 0.0394712 0)
(0.0520633 0.0572966 0)
(-0.0403546 0.0924014 0)
(0.51103 0.3326 0)
(-0.205512 0.142205 0)
(-0.0719002 0.113103 0)
(-0.0994652 0.0867975 0)
(-0.112502 0.0625682 0)
(-0.122037 0.0363794 0)
(-0.12629 0.00505852 0)
(-0.119323 -0.0319445 0)
(-0.10312 -0.0700374 0)
(-0.0806456 -0.101905 0)
(-0.055107 -0.122529 0)
(-0.0301039 -0.129238 0)
(-0.00675913 -0.123209 0)
(0.0141746 -0.105213 0)
(0.0316864 -0.0792263 0)
(0.050828 -0.0468794 0)
(0.079576 -0.0129946 0)
(0.1196 -0.00754918 0)
(0.129411 -0.0440752 0)
(0.113278 -0.0508794 0)
(0.101595 -0.0460659 0)
(0.0949975 -0.037886 0)
(0.0902398 -0.0283447 0)
(0.0867998 -0.0175908 0)
(0.0867554 -0.0098075 0)
(0.0902694 -0.00678314 0)
(0.0924936 -0.00499239 0)
(0.0926612 -0.0037233 0)
(0.0913614 -0.00251713 0)
(0.0886829 -0.00115465 0)
(0.0840287 0.000596187 0)
(0.0762168 0.0031438 0)
(0.0608883 0.00723793 0)
(0.0527093 0.0330642 0)
(0.0454989 0.0556593 0)
(0.0495764 0.0783521 0)
(-0.0663628 0.121658 0)
(0.634794 0.386073 0)
(-0.247716 0.169848 0)
(-0.0320493 0.126776 0)
(-0.054319 0.096582 0)
(-0.0580089 0.0700614 0)
(-0.0603743 0.0411891 0)
(-0.0589278 0.003974 0)
(-0.0437261 -0.0429925 0)
(-0.0252273 -0.0889337 0)
(-0.00586277 -0.124541 0)
(0.0124232 -0.145403 0)
(0.0269583 -0.14948 0)
(0.0390686 -0.140636 0)
(0.0492327 -0.121341 0)
(0.0587301 -0.0950392 0)
(0.0699867 -0.0658454 0)
(0.0862327 -0.0417498 0)
(0.100882 -0.037191 0)
(0.103353 -0.0448607 0)
(0.0947756 -0.0439264 0)
(0.08395 -0.0377989 0)
(0.0751656 -0.0303514 0)
(0.0683464 -0.0224976 0)
(0.063646 -0.0141702 0)
(0.0617488 -0.00572384 0)
(0.0623871 -0.00127648 0)
(0.0629382 0.000680433 0)
(0.0628967 0.00198221 0)
(0.062416 0.00355459 0)
(0.0613123 0.00581215 0)
(0.0591611 0.00912096 0)
(0.0555134 0.01404 0)
(0.0490378 0.0216041 0)
(0.0431406 0.0397986 0)
(0.0378708 0.0639918 0)
(0.056582 0.0921978 0)
(-0.00247643 0.134512 0)
(0.0446875 0.0472676 0)
(-0.0664835 -0.0399098 0)
(-0.265135 -0.0604541 0)
(0.722881 0.430619 0)
(-0.287825 0.188154 0)
(-0.00319503 0.119749 0)
(-0.0087931 0.0945111 0)
(-0.000180038 0.0698332 0)
(0.00679976 0.0392193 0)
(0.0243655 -0.00533057 0)
(0.0458948 -0.0594187 0)
(0.0639254 -0.106225 0)
(0.0764102 -0.138908 0)
(0.0831261 -0.155546 0)
(0.0849901 -0.156895 0)
(0.0836556 -0.145748 0)
(0.080608 -0.125325 0)
(0.077577 -0.0994984 0)
(0.0762356 -0.072461 0)
(0.0776798 -0.0499685 0)
(0.0785096 -0.0387336 0)
(0.0739613 -0.0359315 0)
(0.0642997 -0.0330428 0)
(0.0534773 -0.0280019 0)
(0.0443655 -0.0221771 0)
(0.0374867 -0.0162529 0)
(0.033022 -0.0102424 0)
(0.0311292 -0.00482863 0)
(0.0313307 -0.00202245 0)
(0.0322928 -0.000766186 0)
(0.033567 0.000398341 0)
(0.0348926 0.00227343 0)
(0.0359446 0.0052126 0)
(0.0365845 0.00955398 0)
(0.0368331 0.0158569 0)
(0.0363887 0.024964 0)
(0.0370089 0.0403516 0)
(0.0381999 0.0627932 0)
(0.0622774 0.0918663 0)
(0.0497327 0.122216 0)
(0.0887135 0.080764 0)
(0.113562 0.0478622 0)
(-0.135458 -0.013141 0)
(0.774873 0.471346 0)
(-0.306263 0.172741 0)
(0.0235953 0.0645457 0)
(0.0516196 0.0659588 0)
(0.0708929 0.057118 0)
(0.0886043 0.0262236 0)
(0.122052 -0.0274488 0)
(0.146123 -0.079165 0)
(0.158838 -0.118942 0)
(0.16046 -0.143719 0)
(0.152764 -0.153447 0)
(0.138443 -0.149837 0)
(0.120437 -0.135764 0)
(0.101344 -0.114522 0)
(0.0834165 -0.0897259 0)
(0.0681541 -0.0648395 0)
(0.0563804 -0.0442684 0)
(0.0466879 -0.031732 0)
(0.0366665 -0.0258686 0)
(0.0260483 -0.0222696 0)
(0.0161864 -0.018524 0)
(0.00832712 -0.0146737 0)
(0.00273754 -0.0109524 0)
(-0.000544164 -0.00737082 0)
(-0.00152244 -0.00448773 0)
(-0.000793039 -0.00305012 0)
(0.000807771 -0.0024217 0)
(0.00287537 -0.00163165 0)
(0.00559218 9.40956e-05 0)
(0.00883236 0.00316933 0)
(0.0120923 0.00762674 0)
(0.0157889 0.0138431 0)
(0.0201827 0.0224989 0)
(0.026627 0.0353035 0)
(0.0345167 0.0529742 0)
(0.0591004 0.076527 0)
(0.074471 0.0937924 0)
(0.109933 0.0647328 0)
(0.152738 0.0463739 0)
(-0.0427947 0.0900524 0)
(0.879101 0.4724 0)
(-0.0651841 0.151944 0)
(0.11226 -0.0194823 0)
(0.185826 -0.0402911 0)
(0.202615 -0.0420566 0)
(0.229161 -0.060877 0)
(0.254637 -0.085538 0)
(0.265617 -0.10868 0)
(0.259863 -0.125824 0)
(0.239874 -0.134316 0)
(0.209734 -0.133415 0)
(0.173904 -0.124058 0)
(0.136376 -0.107987 0)
(0.100272 -0.0875054 0)
(0.0680382 -0.0654824 0)
(0.0408162 -0.0443752 0)
(0.0201015 -0.0279859 0)
(0.00502078 -0.0185303 0)
(-0.00664897 -0.0143743 0)
(-0.0157721 -0.0124636 0)
(-0.0231859 -0.0108099 0)
(-0.0287263 -0.00915594 0)
(-0.0324683 -0.0075641 0)
(-0.0345073 -0.00612516 0)
(-0.0350148 -0.00510792 0)
(-0.0344555 -0.00473003 0)
(-0.0333386 -0.0047209 0)
(-0.031846 -0.0046206 0)
(-0.029793 -0.00393826 0)
(-0.0266024 -0.00217562 0)
(-0.0218038 0.000915771 0)
(-0.0168495 0.0051035 0)
(-0.0104945 0.010387 0)
(-0.00166966 0.0177169 0)
(0.0101767 0.0272514 0)
(0.0335765 0.0387248 0)
(0.058551 0.0374733 0)
(0.0857109 0.00259367 0)
(0.150008 0.0354544 0)
(-0.401755 0.195583 0)
(1.02518 0.424392 0)
(0.484526 0.282734 0)
(0.510333 0.217063 0)
(0.540369 0.149465 0)
(0.526325 0.0973813 0)
(0.494501 0.0482872 0)
(0.452886 0.000632776 0)
(0.403394 -0.0389965 0)
(0.346653 -0.0660046 0)
(0.285303 -0.0794578 0)
(0.223041 -0.0812668 0)
(0.16344 -0.0746255 0)
(0.108865 -0.0621767 0)
(0.0609814 -0.0463245 0)
(0.0213897 -0.030076 0)
(-0.0106437 -0.015817 0)
(-0.0297888 -0.00853168 0)
(-0.0416825 -0.00586347 0)
(-0.0498018 -0.00543326 0)
(-0.0559969 -0.00570303 0)
(-0.0609528 -0.00591215 0)
(-0.0647622 -0.00598395 0)
(-0.0675406 -0.00598563 0)
(-0.0694315 -0.0059868 0)
(-0.0706838 -0.00608269 0)
(-0.0717173 -0.00629403 0)
(-0.0729846 -0.00642927 0)
(-0.0748383 -0.00614417 0)
(-0.0775894 -0.00498733 0)
(-0.0817404 -0.00243151 0)
(-0.0871585 0.00182236 0)
(-0.0935266 0.00801596 0)
(-0.102824 0.0168054 0)
(-0.116623 0.0291141 0)
(-0.137289 0.0452305 0)
(-0.167132 0.0637787 0)
(-0.21147 0.0802692 0)
(-0.268622 0.0921289 0)
(-0.340241 0.100296 0)
(-0.603277 0.103216 0)
(0.140015 -0.119451 0)
(0.235767 -0.0350844 0)
(0.271567 -0.021127 0)
(0.252038 -0.0281865 0)
(0.227896 -0.0344156 0)
(0.200752 -0.0373001 0)
(0.165739 -0.0368203 0)
(0.125516 -0.0335582 0)
(0.0831894 -0.0279788 0)
(0.0417138 -0.0204563 0)
(0.000697233 -0.0106313 0)
(-0.0345167 -0.00126192 0)
(-0.0576702 0.00433735 0)
(-0.0723388 0.00686859 0)
(-0.0806883 0.00712495 0)
(-0.0861349 0.00684495 0)
(-0.0902809 0.00663103 0)
(-0.0938682 0.00666945 0)
(-0.0971576 0.00692917 0)
(-0.100107 0.00738659 0)
(-0.10274 0.00797519 0)
(-0.105142 0.0086099 0)
(-0.107467 0.00919783 0)
(-0.109926 0.00968088 0)
(-0.112711 0.0100757 0)
(-0.11594 0.0104383 0)
(-0.119443 0.011144 0)
(-0.122744 0.0127138 0)
(-0.125794 0.015873 0)
(-0.128639 0.0215406 0)
(-0.131224 0.0307102 0)
(-0.133487 0.0443731 0)
(-0.13556 0.0626234 0)
(-0.137545 0.0824191 0)
(-0.137208 0.0934937 0)
(-0.121184 0.0737727 0)
(-0.0855791 -0.0148092 0)
(-0.26522 -0.192916 0)
(0.0756917 0.221232 0)
(-0.0313489 0.111962 0)
(-0.0293723 0.0553513 0)
(-0.0273852 0.029403 0)
(-0.0293697 0.0157593 0)
(-0.0360353 0.00636619 0)
(-0.0467893 0.000753587 0)
(-0.0628013 -0.00117793 0)
(-0.079907 -0.00115319 0)
(-0.0947605 -0.000892187 0)
(-0.104933 -0.00191212 0)
(-0.110497 -0.00504759 0)
(-0.113341 -0.00977531 0)
(-0.114618 -0.0151011 0)
(-0.115464 -0.0208235 0)
(-0.116632 -0.0263114 0)
(-0.118245 -0.0312868 0)
(-0.120229 -0.0356277 0)
(-0.122465 -0.0392151 0)
(-0.124925 -0.0420939 0)
(-0.127497 -0.0441896 0)
(-0.130049 -0.0453846 0)
(-0.13244 -0.0455587 0)
(-0.13452 -0.044578 0)
(-0.136137 -0.042286 0)
(-0.137142 -0.0384886 0)
(-0.137449 -0.0331629 0)
(-0.136851 -0.0262645 0)
(-0.13488 -0.0175995 0)
(-0.130706 -0.00685331 0)
(-0.123082 0.00658756 0)
(-0.11059 0.0236034 0)
(-0.0923321 0.0443649 0)
(-0.0688217 0.0657973 0)
(-0.0424906 0.0795197 0)
(-0.00414569 0.0642933 0)
(0.145104 -0.0100301 0)
(-0.198523 -0.102526 0)
(-0.205343 -0.387918 0)
(-0.486379 -0.128773 0)
(-0.378501 0.0829377 0)
(-0.333966 0.0137233 0)
(-0.262559 -0.00163266 0)
(-0.231879 -0.0031365 0)
(-0.215282 0.0012848 0)
(-0.206591 0.00824811 0)
(-0.201251 0.0165863 0)
(-0.196198 0.0255981 0)
(-0.189893 0.034862 0)
(-0.18193 0.0442361 0)
(-0.172658 0.0534434 0)
(-0.16307 0.0621189 0)
(-0.154309 0.0703508 0)
(-0.146967 0.0783291 0)
(-0.141255 0.0860663 0)
(-0.137031 0.093423 0)
(-0.133992 0.100137 0)
(-0.131849 0.105976 0)
(-0.13035 0.110775 0)
(-0.129311 0.114503 0)
(-0.128605 0.117056 0)
(-0.128136 0.118298 0)
(-0.127825 0.118098 0)
(-0.127597 0.116367 0)
(-0.127332 0.113108 0)
(-0.126804 0.108468 0)
(-0.12565 0.10286 0)
(-0.123328 0.0968633 0)
(-0.118953 0.0911159 0)
(-0.111024 0.0863623 0)
(-0.0973193 0.0835017 0)
(-0.0756261 0.0836721 0)
(-0.0454228 0.0879581 0)
(-0.00432063 0.0961206 0)
(0.0439795 0.0991482 0)
(0.0850887 0.0872639 0)
(0.158669 0.0645509 0)
(-0.251991 0.0202632 0)
)
;

boundaryField
{
    floor
    {
        type            noSlip;
    }
    ceiling
    {
        type            noSlip;
    }
    sWall
    {
        type            noSlip;
    }
    nWall
    {
        type            noSlip;
    }
    sideWalls
    {
        type            empty;
    }
    glass1
    {
        type            noSlip;
    }
    glass2
    {
        type            noSlip;
    }
    sun
    {
        type            noSlip;
    }
    heatsource1
    {
        type            noSlip;
    }
    heatsource2
    {
        type            noSlip;
    }
    Table_master
    {
        type            noSlip;
    }
    Table_slave
    {
        type            noSlip;
    }
    inlet
    {
        type            fixedValue;
        value           uniform (0.353553 -0.353553 0);
    }
    outlet
    {
        type            zeroGradient;
    }
}


// ************************************************************************* //
