/*--------------------------------*- C++ -*----------------------------------*\
  =========                 |
  \\      /  F ield         | OpenFOAM: The Open Source CFD Toolbox
   \\    /   O peration     | Website:  https://openfoam.org
    \\  /    A nd           | Version:  6
     \\/     M anipulation  |
\*---------------------------------------------------------------------------*/
FoamFile
{
    version     2.0;
    format      ascii;
    class       volScalarField;
    location    "39599.9999990804572";
    object      epsilon;
}
// * * * * * * * * * * * * * * * * * * * * * * * * * * * * * * * * * * * * * //

dimensions      [0 2 -3 0 0 0 0];

internalField   nonuniform List<scalar> 
778
(
0.00025313
0.000306349
0.000302981
0.000344139
0.000384992
0.000424792
0.000464236
0.000504514
0.000547364
0.000595504
0.000643991
0.000692434
0.000742477
0.00079891
0.000860751
8.94661e-05
0.000262774
0.00026926
0.000250232
0.000220384
0.000184298
0.000152472
0.000126611
0.000105974
8.95004e-05
7.63458e-05
6.56887e-05
5.68871e-05
4.94146e-05
4.27994e-05
3.65428e-05
3.18328e-05
2.36081e-05
0.000797034
0.00144325
0.000286974
0.000259562
0.000261659
0.000267632
0.000276532
0.000289968
0.000310234
0.000340458
0.000379712
0.000430892
0.000499366
0.000600689
0.000785989
0.00112986
0.000979181
0.00085875
0.000511885
0.000369559
0.000294362
0.000243068
0.000204249
0.000187108
0.000154845
0.000125093
0.00010075
8.15213e-05
6.65484e-05
5.48395e-05
4.56468e-05
3.87228e-05
3.45338e-05
3.27803e-05
6.57904e-05
4.81042e-05
0.00163073
0.00407931
0.000407396
0.000242903
0.000229078
0.000230995
0.000238217
0.000250494
0.000268411
0.000292701
0.000324858
0.00036697
0.000421421
0.000495209
0.000601683
0.000725015
0.000830163
0.00158465
0.00102775
0.000512357
0.000367801
0.000294414
0.000262265
0.000551977
0.000363017
0.000251029
0.000181528
0.000136417
0.000105997
8.48302e-05
6.98572e-05
5.94923e-05
4.51582e-05
3.80031e-05
0.000108087
7.0816e-05
0.00285375
0.00877092
0.00070993
0.000240706
0.000202456
0.000199997
0.000203177
0.000209813
0.00022064
0.000237572
0.000263285
0.00030007
0.00034934
0.000412539
0.000488271
0.000560471
0.000612608
0.000824575
0.00156501
0.00072886
0.000459748
0.000358272
0.000301905
0.000291829
0.000814329
0.000612938
0.000482171
0.000388746
0.000319337
0.000264501
0.000218908
0.000179139
0.000141953
8.38897e-05
5.49598e-05
0.000148342
9.45511e-05
0.00454641
0.0158281
0.00134648
0.000258336
0.000175713
0.000166775
0.000165792
0.000167779
0.00017395
0.000187463
0.000211723
0.000248438
0.00029791
0.000359523
0.000428038
0.000489425
0.000528773
0.000582628
0.000627656
0.000483241
0.000393491
0.000331016
0.000282286
0.000248629
0.000247854
0.000226806
0.000202972
0.000181095
0.000162718
0.000146557
0.000131886
0.000118287
0.000105118
8.45396e-05
6.42946e-05
0.000105116
0.000138818
0.000160029
0.00035908
0.000319947
0.00676421
0.0248789
0.00255368
0.000318084
0.000155523
0.000137052
0.000132122
0.000130698
0.000134472
0.000148561
0.000176715
0.000218108
0.000270887
0.000334281
0.00040196
0.000462874
0.000503238
0.000521898
0.000504969
0.000438365
0.000373879
0.000315674
0.000264759
0.000223409
0.000193315
0.000169651
0.000150829
0.000135636
0.000123303
0.000112758
0.000103303
9.45335e-05
8.6071e-05
7.58993e-05
6.54257e-05
7.76181e-05
9.97483e-05
0.000207707
0.00105491
0.000550316
0.00967282
0.0336371
0.00458394
0.000465045
0.000150841
0.000116336
0.000107089
0.000103291
0.00010709
0.000127907
0.000166099
0.000215862
0.000273331
0.000340168
0.000409533
0.000470706
0.000510434
0.000520691
0.000494521
0.000437779
0.000371937
0.000307536
0.000250585
0.000204466
0.000169767
0.000144565
0.000126323
0.00011273
0.000102278
9.37181e-05
8.62342e-05
7.93533e-05
7.27855e-05
6.61078e-05
6.03755e-05
6.38666e-05
7.67458e-05
0.000171249
0.00156874
0.000894328
0.0127597
0.0404057
0.00749001
0.000871481
0.000194338
0.000115406
9.74101e-05
9.14885e-05
9.87e-05
0.000137731
0.000189262
0.000246209
0.000307034
0.000373909
0.00044497
0.000508322
0.00054768
0.00055122
0.000515949
0.000451746
0.000375634
0.000301023
0.000236508
0.000185973
0.000149312
0.000123966
0.000106686
9.45441e-05
8.57211e-05
7.88069e-05
7.29172e-05
6.756e-05
6.24877e-05
5.76614e-05
5.40263e-05
5.60709e-05
7.01566e-05
0.000335375
0.00533455
0.00196046
0.0138282
0.0414591
0.0139315
0.00316367
0.00063029
0.000208201
0.000132817
0.000116117
0.000142639
0.000193069
0.00024935
0.000306417
0.000367353
0.00043671
0.000511235
0.000575953
0.000611166
0.000603438
0.000552426
0.000471182
0.000378618
0.000290954
0.000218241
0.000163984
0.000126736
0.000102564
8.72379e-05
7.72964e-05
7.06274e-05
6.56495e-05
6.14706e-05
5.76489e-05
5.40089e-05
5.06538e-05
4.85748e-05
5.31752e-05
9.74342e-05
0.000939437
0.0128701
0.00294803
0.0130051
0.0283702
0.014415
0.00572669
0.00210502
0.000835448
0.000414396
0.00027743
0.00027957
0.000315029
0.000356354
0.000401849
0.000458657
0.000530949
0.00061003
0.000674035
0.000698792
0.00067083
0.000594103
0.000486962
0.000372789
0.000270696
0.000191067
0.000135668
0.000100604
7.98166e-05
6.79061e-05
6.11247e-05
5.70438e-05
5.41033e-05
5.15578e-05
4.91035e-05
4.6689e-05
4.46018e-05
4.45214e-05
5.85371e-05
0.000224297
0.00269127
0.0108434
0.00308249
0.0106895
0.0193557
0.0120381
0.00630056
0.00317534
0.00167578
0.000987799
0.000680036
0.000560956
0.000518071
0.000510915
0.000531746
0.000583809
0.000662683
0.00074721
0.00080475
0.000807129
0.000744247
0.000628431
0.00048644
0.000347695
0.000233475
0.000152323
0.000101661
7.34976e-05
5.87657e-05
5.13238e-05
4.78701e-05
4.60582e-05
4.47299e-05
4.34069e-05
4.19375e-05
4.04043e-05
3.94254e-05
4.27303e-05
8.62119e-05
0.000645711
0.00300079
0.00790182
0.00294743
0.00807118
0.0137675
0.00969077
0.00593316
0.00357007
0.00222808
0.00149151
0.00109388
0.000870143
0.000744308
0.000686494
0.000690493
0.000750538
0.000844233
0.000931272
0.000967411
0.000925522
0.000805886
0.00063564
0.000452764
0.000293035
0.000177134
0.000106749
6.93836e-05
5.24762e-05
4.43539e-05
4.04995e-05
3.90608e-05
3.84591e-05
3.80044e-05
3.74076e-05
3.66019e-05
3.5772e-05
3.59955e-05
4.55395e-05
0.000160237
0.000893626
0.00287283
0.00599857
0.00266452
0.00612167
0.0101629
0.00778771
0.00531135
0.00356992
0.00246924
0.00178829
0.00136865
0.00109346
0.000926664
0.000859823
0.000886845
0.000982056
0.0010956
0.00116693
0.00114797
0.0010262
0.000822832
0.000587703
0.000369435
0.000207902
0.000114342
7.19852e-05
5.22993e-05
4.29529e-05
3.81842e-05
3.57547e-05
3.48194e-05
3.44861e-05
3.43228e-05
3.41772e-05
3.40934e-05
3.43996e-05
3.66535e-05
5.1578e-05
0.000168334
0.000792208
0.00247189
0.00570567
0.00255818
0.00618034
0.00780383
0.00679902
0.00473688
0.00336416
0.00246157
0.0018654
0.00146217
0.00119479
0.00106519
0.00107079
0.0011795
0.00132649
0.00143267
0.00143276
0.00129701
0.00105121
0.000744618
0.000458263
0.000238876
0.000130853
8.15989e-05
6.00448e-05
4.95752e-05
4.36341e-05
3.97614e-05
3.71592e-05
3.5705e-05
3.50914e-05
3.50327e-05
3.55937e-05
3.71191e-05
4.02902e-05
4.70129e-05
6.64133e-05
0.000153832
0.000585369
0.00200814
0.0046346
0.00311583
0.00454478
0.00511033
0.00418304
0.00336055
0.00263878
0.00206934
0.00164839
0.00136164
0.00124554
0.00130155
0.00147781
0.00168293
0.00181629
0.00180565
0.00162782
0.00129916
0.000912088
0.000522398
0.000279668
0.000154755
0.000101472
7.9139e-05
6.84404e-05
6.17932e-05
5.65698e-05
5.19312e-05
4.78679e-05
4.49633e-05
4.38141e-05
4.43685e-05
4.73074e-05
5.40114e-05
6.6403e-05
8.72989e-05
0.000124442
0.000212527
0.000527081
0.00189514
0.00360322
0.00325147
0.00140114
0.00143116
0.00143296
0.00135326
0.00131065
0.00142417
0.0017099
0.00204373
0.00230166
0.00239331
0.0022735
0.00196111
0.00152042
0.000980526
0.000570084
0.000312725
0.000186801
0.000134718
0.000114459
0.000105245
9.94794e-05
9.4515e-05
8.93146e-05
8.3492e-05
7.73359e-05
7.21844e-05
7.05157e-05
7.33289e-05
8.2835e-05
0.000102884
0.000138308
0.000194613
0.000281949
0.000433292
0.000769706
0.00206412
0.00346887
0.00337145
0.00118733
0.00171542
0.00195168
0.00230794
0.00275737
0.00316155
0.00333971
0.00330082
0.00306992
0.00267207
0.00210406
0.00148781
0.000959772
0.000564837
0.000337254
0.000231453
0.000190753
0.000175921
0.000169615
0.000165904
0.000162965
0.000159965
0.00015617
0.000150948
0.000144319
0.000137855
0.000136049
0.000142268
0.000160641
0.000198273
0.000265068
0.000373796
0.000543632
0.00081435
0.00128373
0.00222621
0.00401921
0.00299234
0.00742163
0.00808052
0.00480678
0.00339999
0.00373512
0.00414869
0.00416299
0.00395203
0.00359301
0.00313416
0.00262096
0.00207612
0.00152936
0.00104721
0.000690901
0.000474682
0.000371304
0.000329198
0.000311358
0.000301364
0.00029431
0.000289367
0.000286647
0.000285938
0.000286257
0.000286015
0.000283928
0.00028087
0.000282237
0.000293424
0.00031881
0.000366502
0.000449189
0.000585668
0.000805298
0.00116094
0.00175555
0.00272414
0.00411854
0.00281172
0.0065049
0.00513467
0.00437098
0.00462366
0.00454165
0.00427269
0.00369118
0.00304439
0.00245857
0.00196502
0.00155964
0.00123069
0.000973534
0.000789119
0.000672283
0.000607146
0.000569122
0.000544305
0.000525952
0.000511936
0.000502772
0.000500098
0.000505593
0.000520155
0.000543336
0.00057314
0.000606311
0.000639102
0.000668169
0.00069819
0.000738428
0.000799941
0.000895633
0.00104305
0.00126964
0.00162119
0.00216995
0.003029
0.00371985
0.00352126
0.00535713
0.00336918
0.00331797
0.00361419
0.0038714
0.00353046
0.00292506
0.00230724
0.00177906
0.00135827
0.00103411
0.000793572
0.000625919
0.000520121
0.000462133
0.00043584
0.000429675
0.000432074
0.000439427
0.000452203
0.000472272
0.000501664
0.000541576
0.000591724
0.000650301
0.000714601
0.000782081
0.000851503
0.000924011
0.00100067
0.0010849
0.0011842
0.00130706
0.00146199
0.00165595
0.00188986
0.00215285
0.00243878
0.00284414
0.00300114
)
;

boundaryField
{
    floor
    {
        Cmu             0.09;
        kappa           0.41;
        E               9.8;
        type            epsilonWallFunction;
        value           nonuniform List<scalar> 
36
(
0.000860751
8.94661e-05
0.000262774
0.00026926
0.000250232
0.000220384
0.000184298
0.000152472
0.000126611
0.000105974
8.95004e-05
7.63458e-05
6.56887e-05
5.68871e-05
4.94146e-05
4.27994e-05
3.65428e-05
3.18328e-05
2.36081e-05
2.36081e-05
4.81042e-05
7.0816e-05
9.45511e-05
0.000160029
0.00035908
0.000319947
0.000860751
0.00112986
0.000979181
0.00085875
8.94661e-05
0.00085875
0.000511885
0.00158465
0.00102775
0.00156501
)
;
    }
    ceiling
    {
        Cmu             0.09;
        kappa           0.41;
        E               9.8;
        type            epsilonWallFunction;
        value           nonuniform List<scalar> 
43
(
0.00535713
0.00336918
0.00331797
0.00361419
0.0038714
0.00353046
0.00292506
0.00230724
0.00177906
0.00135827
0.00103411
0.000793572
0.000625919
0.000520121
0.000462133
0.00043584
0.000429675
0.000432074
0.000439427
0.000452203
0.000472272
0.000501664
0.000541576
0.000591724
0.000650301
0.000714601
0.000782081
0.000851503
0.000924011
0.00100067
0.0010849
0.0011842
0.00130706
0.00146199
0.00165595
0.00188986
0.00215285
0.00243878
0.00284414
0.00300114
0.00454478
0.00511033
0.00118733
)
;
    }
    sWall
    {
        Cmu             0.09;
        kappa           0.41;
        E               9.8;
        type            epsilonWallFunction;
        value           nonuniform List<scalar> 9(0.0130051 0.0106895 0.00807118 0.00612167 0.00618034 0.00454478 0.00742163 0.0065049 0.00535713);
    }
    nWall
    {
        Cmu             0.09;
        kappa           0.41;
        E               9.8;
        type            epsilonWallFunction;
        value           nonuniform List<scalar> 
14
(
0.000319947
0.000550316
0.000894328
0.00308249
0.00294743
0.00266452
0.00255818
0.00311583
0.00325147
0.00337145
0.00299234
0.00281172
0.00352126
0.00300114
)
;
    }
    sideWalls
    {
        type            empty;
    }
    glass1
    {
        Cmu             0.09;
        kappa           0.41;
        E               9.8;
        type            epsilonWallFunction;
        value           nonuniform List<scalar> 9(0.00025313 0.000797034 0.00163073 0.00285375 0.00454641 0.00676421 0.00967282 0.0127597 0.0138282);
    }
    glass2
    {
        Cmu             0.09;
        kappa           0.41;
        E               9.8;
        type            epsilonWallFunction;
        value           nonuniform List<scalar> 2(0.00196046 0.00294803);
    }
    sun
    {
        Cmu             0.09;
        kappa           0.41;
        E               9.8;
        type            epsilonWallFunction;
        value           nonuniform List<scalar> 
14
(
0.00025313
0.000306349
0.000302981
0.000344139
0.000384992
0.000424792
0.000464236
0.000504514
0.000547364
0.000595504
0.000643991
0.000692434
0.000742477
0.00079891
)
;
    }
    Table_master
    {
        Cmu             0.09;
        kappa           0.41;
        E               9.8;
        type            epsilonWallFunction;
        value           nonuniform List<scalar> 9(0.000551977 0.000363017 0.000251029 0.000181528 0.000136417 0.000105997 8.48302e-05 6.98572e-05 5.94923e-05);
    }
    Table_slave
    {
        Cmu             0.09;
        kappa           0.41;
        E               9.8;
        type            epsilonWallFunction;
        value           nonuniform List<scalar> 9(0.000814329 0.000612938 0.000482171 0.000388746 0.000319337 0.000264501 0.000218908 0.000179139 0.000141953);
    }
    inlet
    {
        type            turbulentMixingLengthDissipationRateInlet;
        mixingLength    0.01;
        phi             phi;
        k               k;
        value           uniform 0.000471671;
    }
    outlet
    {
        type            zeroGradient;
    }
}


// ************************************************************************* //
