/*--------------------------------*- C++ -*----------------------------------*\
  =========                 |
  \\      /  F ield         | OpenFOAM: The Open Source CFD Toolbox
   \\    /   O peration     | Website:  https://openfoam.org
    \\  /    A nd           | Version:  6
     \\/     M anipulation  |
\*---------------------------------------------------------------------------*/
FoamFile
{
    version     2.0;
    format      ascii;
    class       volScalarField;
    location    "39599.9999990804572";
    object      nut;
}
// * * * * * * * * * * * * * * * * * * * * * * * * * * * * * * * * * * * * * //

dimensions      [0 2 -1 0 0 0 0];

internalField   nonuniform List<scalar> 
778
(
0.00089432
0.000953053
0.000949548
0.000990733
0.00102848
0.00106277
0.00109469
0.00112548
0.00115648
0.00118944
0.00122088
0.00125076
0.00128019
0.00131183
0.00134484
0.000632314
0.000905533
0.000912924
0.000890892
0.00085396
0.000804547
0.000755282
0.000709909
0.000669028
0.000632392
0.000599754
0.000570438
0.000543729
0.000518796
0.000494528
0.00046915
0.00044806
0.00040557
0.0013108
0.00258112
0.00226505
0.00261437
0.00286777
0.00313638
0.00340432
0.00365127
0.00385011
0.00396598
0.00403413
0.00400624
0.00380657
0.00331165
0.00241862
0.0014725
0.00140389
0.0013438
0.00113093
0.00192666
0.00267093
0.00311084
0.00313166
0.00247111
0.00211343
0.00186553
0.0016773
0.00152751
0.00139977
0.00128691
0.00118191
0.00107921
0.000987042
0.000907579
0.00102194
0.000514168
0.00166407
0.0036044
0.00267219
0.00382236
0.004271
0.00465058
0.00499529
0.0052987
0.00555582
0.00575757
0.00595299
0.00615868
0.00634773
0.00646022
0.00638557
0.00584651
0.00427569
0.00164825
0.00142673
0.00305175
0.00425924
0.00483123
0.00439446
0.00115971
0.00100852
0.000891835
0.000800495
0.000727781
0.000669077
0.000621196
0.000582258
0.000551906
0.000606701
0.000713592
0.00112924
0.000584907
0.00200532
0.00485846
0.00255719
0.00429816
0.00496261
0.00531808
0.00557943
0.00577277
0.00591712
0.00603424
0.0062006
0.00648168
0.00689178
0.0074073
0.00792524
0.00817995
0.00768035
0.00572866
0.00164142
0.0038013
0.00565368
0.00659519
0.00682833
0.00583034
0.00132021
0.00120093
0.00110861
0.00103181
0.000966334
0.000907514
0.00085205
0.000796968
0.000737495
0.000688962
0.000713929
0.00122169
0.000644065
0.00234208
0.00643321
0.00258024
0.00408619
0.00510797
0.00541131
0.00552155
0.005526
0.00547129
0.00542289
0.00549258
0.00576568
0.00626674
0.00697604
0.00779824
0.00855523
0.00903508
0.00902877
0.00810271
0.00824381
0.00843191
0.00845816
0.00828666
0.00775727
0.00617422
0.00533395
0.00475834
0.00429067
0.00383185
0.00338734
0.00295241
0.00251796
0.00207153
0.00159139
0.00121471
0.00121202
0.000959365
0.000767549
0.0010049
0.000966908
0.00267373
0.00819645
0.00303803
0.00344597
0.00489447
0.00523122
0.00520473
0.00501779
0.00475032
0.00452963
0.00452479
0.00481095
0.00538203
0.00620461
0.00716677
0.00812726
0.00894458
0.00946636
0.00956076
0.00946391
0.00929517
0.00905664
0.00875075
0.00836194
0.00779445
0.00724761
0.00675103
0.00627096
0.00575255
0.00519889
0.00460742
0.00397303
0.00329168
0.00256891
0.00191537
0.00143835
0.00111661
0.00124623
0.00215581
0.00115849
0.00301228
0.00982795
0.00404895
0.00282336
0.00439797
0.00494854
0.00488803
0.00458539
0.00414605
0.00375929
0.00374804
0.00410924
0.00476295
0.00568246
0.00672825
0.00776276
0.00865263
0.00928964
0.00958222
0.00955858
0.00934778
0.00902925
0.00866503
0.00830205
0.00795114
0.00762913
0.00732665
0.00700383
0.00661399
0.00614473
0.00558899
0.00494399
0.00421224
0.00341291
0.00263302
0.00190669
0.00140476
0.00125067
0.00218463
0.00136206
0.00330363
0.0110648
0.00552152
0.00268888
0.00348387
0.00438676
0.00451327
0.00426473
0.00374513
0.00321925
0.00333847
0.00381614
0.00454704
0.00549457
0.00658063
0.00766365
0.00858701
0.0092283
0.00951924
0.00948046
0.00920853
0.00880789
0.00837727
0.0079956
0.00770149
0.00749137
0.00732755
0.00714962
0.00690217
0.00655582
0.00609679
0.00552212
0.00483739
0.00406388
0.00326222
0.00245589
0.00172936
0.00114462
0.00309666
0.00176948
0.00339339
0.0104836
0.00683752
0.00347804
0.00236273
0.00289448
0.00338732
0.00342952
0.00302847
0.00294425
0.00325029
0.00381193
0.00460178
0.00560602
0.00674382
0.00786003
0.00878029
0.00937242
0.00958029
0.00943688
0.00904308
0.00852652
0.0080141
0.00760545
0.00734613
0.00721872
0.00716084
0.00709231
0.00694996
0.00669981
0.00632824
0.00583357
0.00522231
0.00451253
0.00373719
0.00287148
0.00172346
0.00139371
0.00461287
0.00202696
0.00332468
0.00845765
0.00706652
0.00477683
0.0031541
0.00244192
0.00231238
0.00242086
0.00262486
0.00294935
0.00340895
0.00404056
0.00489868
0.00598036
0.00717923
0.00831083
0.00918323
0.0096641
0.00971476
0.00939212
0.00882323
0.00816805
0.00758322
0.00718279
0.00699938
0.00697764
0.00701682
0.00701565
0.00692304
0.00671998
0.00639985
0.00596192
0.00541033
0.00475176
0.00395482
0.00275315
0.00132513
0.00249077
0.00468135
0.0020576
0.00311433
0.00723052
0.00683505
0.00546891
0.00420795
0.00338744
0.00298184
0.00289033
0.00305869
0.00336797
0.00381663
0.00448219
0.00542835
0.00661269
0.00787138
0.00897857
0.00973081
0.0100118
0.00981639
0.00924211
0.0084604
0.00767701
0.00708201
0.00678388
0.00674938
0.00684622
0.00694372
0.00694502
0.00684697
0.00664974
0.00634888
0.00593935
0.00541782
0.00476761
0.00381993
0.00213409
0.00152468
0.00302473
0.00436255
0.00202736
0.0028359
0.00652021
0.00659493
0.00579099
0.00492537
0.00427431
0.00389136
0.00375492
0.00378967
0.00397604
0.00438702
0.00512904
0.00622103
0.00753086
0.00881491
0.00981078
0.0103255
0.0102854
0.00974331
0.00885774
0.00786769
0.00704079
0.00657454
0.00648029
0.00656008
0.00668662
0.0067712
0.00674707
0.00663378
0.0064348
0.00614194
0.00574205
0.00521895
0.00453434
0.00331773
0.00158073
0.00188211
0.00324011
0.0040862
0.00196019
0.00258624
0.00583236
0.00629779
0.00591759
0.00536185
0.0048954
0.00458556
0.00443437
0.00438921
0.00454765
0.00506846
0.00603663
0.0073559
0.00877149
0.00997072
0.0106924
0.0107988
0.0102944
0.00932017
0.00812127
0.00703495
0.00634164
0.00603868
0.00599792
0.00607648
0.0061852
0.00625952
0.00624232
0.00613276
0.00593461
0.00563534
0.00521618
0.00466009
0.00392578
0.0027751
0.00157494
0.0019982
0.00336245
0.00442488
0.00193264
0.00259447
0.00578808
0.00643481
0.00598971
0.00553978
0.00517157
0.00490619
0.00473345
0.00472511
0.00511003
0.00602853
0.00739882
0.00894325
0.0103073
0.0111794
0.0113754
0.0108729
0.00978514
0.00838456
0.00703016
0.00605335
0.00548263
0.00520743
0.00512412
0.00515257
0.0052296
0.00530002
0.00530052
0.00519159
0.00497309
0.00462433
0.00413203
0.00352108
0.00286085
0.00220779
0.00168329
0.00206166
0.0035321
0.00459294
0.00206349
0.00234179
0.00243516
0.00359203
0.00421914
0.00441226
0.00441425
0.00437024
0.00444987
0.00498789
0.00613366
0.00774111
0.00947124
0.0109478
0.0118605
0.012029
0.0114191
0.0101766
0.00852998
0.00695913
0.00573831
0.00492143
0.0044417
0.0041994
0.00409178
0.00405307
0.00404924
0.00405361
0.00401729
0.00386955
0.00359977
0.00319782
0.00270925
0.00225449
0.00195323
0.00184095
0.00191091
0.00241002
0.00398044
0.00466293
0.0020938
0.000807682
0.00146549
0.00226119
0.00290058
0.00364032
0.00489867
0.00674669
0.00879222
0.0106467
0.012025
0.0127373
0.0126644
0.0118158
0.010281
0.00845616
0.00672872
0.0053647
0.00444691
0.00392977
0.00365696
0.00349401
0.00337352
0.00327075
0.00317799
0.00308901
0.00298515
0.002822
0.00258522
0.00229949
0.00204425
0.00191477
0.00194846
0.00212821
0.00246033
0.00308301
0.0045903
0.00501437
0.00211942
0.00149705
0.00207552
0.00302874
0.00473442
0.00705494
0.00938012
0.0111872
0.0124866
0.0132625
0.0134655
0.0130049
0.0117913
0.0100155
0.0080278
0.00622564
0.00488494
0.00409254
0.00369538
0.00348576
0.00334449
0.00322801
0.00312583
0.00303737
0.00296165
0.00289246
0.0028151
0.00270808
0.00257184
0.00243257
0.00234247
0.00235833
0.00250209
0.00275686
0.00310911
0.00359257
0.00430072
0.00474916
0.00203732
0.00275768
0.00666497
0.00611962
0.00547023
0.006964
0.00930722
0.0112923
0.0126348
0.0133401
0.0135097
0.0132235
0.0124576
0.011182
0.00945591
0.00754452
0.00584062
0.00468105
0.00407118
0.00376801
0.0035799
0.00342765
0.00329253
0.00317875
0.00309586
0.00305039
0.00304146
0.00305859
0.00308087
0.00308034
0.00306334
0.00305438
0.00307938
0.00316453
0.00332481
0.00355083
0.00380838
0.0040411
0.0041346
0.0039908
0.00199474
0.00263912
0.00509733
0.00657754
0.00839925
0.00933135
0.0103047
0.0108793
0.011026
0.0108187
0.0103092
0.00951706
0.00845395
0.00719417
0.00592463
0.00488924
0.00422288
0.00383484
0.00359742
0.00342032
0.00326375
0.00312101
0.00300099
0.00291824
0.00288686
0.00291556
0.0030036
0.00313704
0.00328564
0.00340182
0.00347802
0.00355143
0.00364966
0.00379135
0.00398721
0.00424006
0.00454313
0.00486908
0.00514611
0.00460676
0.00214537
0.00247376
0.00211943
0.00210863
0.0021696
0.00221989
0.0021527
0.00202185
0.00186813
0.00171312
0.00156586
0.00142997
0.00130934
0.00120984
0.0011374
0.00109334
0.00107204
0.00106687
0.00106879
0.00107482
0.00108522
0.00110118
0.00112372
0.00115286
0.00118738
0.0012252
0.00126407
0.00130237
0.00133953
0.00137627
0.00141309
0.00145154
0.00149448
0.00154446
0.00160319
0.00167105
0.00174604
0.00182312
0.00190017
0.00200043
0.00203641
)
;

boundaryField
{
    floor
    {
        type            nutkWallFunction;
        Cmu             0.09;
        kappa           0.41;
        E               9.8;
        value           nonuniform List<scalar> 
36
(
0.000160573
7.63751e-05
0.000109541
0.00011042
0.000107797
0.000103384
9.74432e-05
9.14775e-05
8.59424e-05
8.09189e-05
7.63856e-05
7.23202e-05
6.86456e-05
6.52776e-05
6.21151e-05
5.90188e-05
5.57607e-05
5.30361e-05
4.74965e-05
4.74964e-05
6.15257e-05
7.04619e-05
7.78336e-05
9.2968e-05
0.00012129
0.000116821
0.000160573
0.00017502
0.000167273
0.000160454
7.6375e-05
0.000160454
0.000136008
0.000194688
0.000169855
0.000193927
)
;
    }
    ceiling
    {
        type            nutkWallFunction;
        Cmu             0.09;
        kappa           0.41;
        E               9.8;
        value           nonuniform List<scalar> 
43
(
0.000284325
0.000246298
0.000245133
0.00025173
0.000257161
0.000249932
0.000235761
0.000218974
0.000201886
0.000185488
0.000170202
0.000156494
0.000145087
0.000136723
0.000131615
0.000129146
0.000128551
0.00012878
0.000129484
0.00013069
0.000132536
0.000135142
0.000138511
0.000142501
0.000146867
0.000151348
0.000155754
0.000160015
0.000164212
0.000168406
0.000172763
0.000177607
0.000183221
0.000189794
0.000197364
0.000205701
0.000214244
0.00022274
0.000233679
0.000237615
0.000270435
0.000280412
0.000177575
)
;
    }
    sWall
    {
        type            nutkWallFunction;
        Cmu             0.09;
        kappa           0.41;
        E               9.8;
        value           nonuniform List<scalar> 9(0.000373892 0.000352071 0.000322952 0.000296592 0.000297462 0.000270524 0.000314412 0.000301928 0.000284426);
    }
    nWall
    {
        type            nutkWallFunction;
        Cmu             0.09;
        kappa           0.41;
        E               9.8;
        value           nonuniform List<scalar> 
14
(
0.000116829
0.000139221
0.000162555
0.000239707
0.000236399
0.000229089
0.000226171
0.00024047
0.000243695
0.000246459
0.000237507
0.000232934
0.000249679
0.000237651
)
;
    }
    sideWalls
    {
        type            empty;
    }
    glass1
    {
        type            nutkWallFunction;
        Cmu             0.09;
        kappa           0.41;
        E               9.8;
        value           nonuniform List<scalar> 9(0.000108249 0.000156885 0.000196741 0.000234356 0.000270802 0.000306153 0.000341769 0.000372089 0.000381383);
    }
    glass2
    {
        type            nutkWallFunction;
        Cmu             0.09;
        kappa           0.41;
        E               9.8;
        value           nonuniform List<scalar> 2(0.000208259 0.000236521);
    }
    sun
    {
        type            nutkWallFunction;
        Cmu             0.09;
        kappa           0.41;
        E               9.8;
        value           nonuniform List<scalar> 
14
(
0.000108208
0.00011518
0.000114765
0.000119627
0.000124062
0.000128075
0.000131798
0.000135376
0.000138969
0.000142776
0.000146397
0.000149828
0.000153199
0.000156813
)
;
    }
    Table_master
    {
        type            nutkWallFunction;
        Cmu             0.09;
        kappa           0.41;
        E               9.8;
        value           nonuniform List<scalar> 9(0.000139334 0.000121713 0.000107907 9.69537e-05 8.81291e-05 8.09285e-05 7.49994e-05 7.0137e-05 6.63194e-05);
    }
    Table_slave
    {
        type            nutkWallFunction;
        Cmu             0.09;
        kappa           0.41;
        E               9.8;
        value           nonuniform List<scalar> 9(0.000157757 0.00014409 0.000133408 0.000124445 0.000116744 0.000109774 0.000103153 9.65279e-05 8.9314e-05);
    }
    inlet
    {
        type            calculated;
        value           uniform 0.000167705;
    }
    outlet
    {
        type            calculated;
        value           nonuniform List<scalar> 2(0.00275768 0.00666497);
    }
}


// ************************************************************************* //
