/*--------------------------------*- C++ -*----------------------------------*\
  =========                 |
  \\      /  F ield         | OpenFOAM: The Open Source CFD Toolbox
   \\    /   O peration     | Website:  https://openfoam.org
    \\  /    A nd           | Version:  6
     \\/     M anipulation  |
\*---------------------------------------------------------------------------*/
FoamFile
{
    version     2.0;
    format      ascii;
    class       volScalarField;
    location    "36199.999998387786";
    object      epsilon;
}
// * * * * * * * * * * * * * * * * * * * * * * * * * * * * * * * * * * * * * //

dimensions      [0 2 -3 0 0 0 0];

internalField   nonuniform List<scalar> 
778
(
0.000253107
0.000306339
0.000303012
0.000344215
0.000385118
0.000424972
0.000464467
0.00050479
0.000547673
0.000595835
0.000644302
0.00069269
0.000742643
0.000798965
0.000860689
8.95052e-05
0.000262419
0.00026884
0.000249786
0.000219977
0.000184008
0.000152291
0.00012649
0.000105877
8.94132e-05
7.62663e-05
6.56174e-05
5.6825e-05
4.93622e-05
4.27565e-05
3.6509e-05
3.18113e-05
2.35966e-05
0.000796948
0.00144314
0.000287018
0.000259649
0.000261764
0.000267751
0.000276661
0.000290107
0.000310384
0.000340614
0.000379851
0.000430985
0.000499378
0.000600583
0.000785716
0.00112935
0.000978791
0.000858413
0.000511722
0.000369296
0.00029402
0.000242702
0.000203898
0.000186749
0.000154617
0.000124959
0.000100667
8.14643e-05
6.65054e-05
5.4804e-05
4.56158e-05
3.86943e-05
3.45039e-05
3.27413e-05
6.57633e-05
4.80624e-05
0.00163049
0.00407877
0.000407395
0.000242985
0.000229172
0.000231092
0.000238315
0.000250594
0.000268511
0.000292793
0.000324925
0.000366983
0.000421342
0.00049501
0.000601355
0.000724597
0.000829814
0.00158375
0.00102815
0.000512284
0.000367627
0.000294193
0.000261975
0.000550797
0.000362103
0.000250394
0.00018111
0.000136148
0.000105825
8.47149e-05
6.97733e-05
5.94253e-05
4.51037e-05
3.79527e-05
0.000108202
7.07325e-05
0.00285322
0.00876958
0.00070981
0.000240769
0.000202537
0.000200077
0.000203252
0.000209882
0.000220703
0.000237625
0.000263315
0.000300045
0.000349217
0.000412289
0.00048791
0.00056008
0.000612393
0.000824627
0.00156524
0.000728813
0.000459719
0.000358263
0.000301896
0.000291799
0.000813825
0.000612245
0.000481418
0.000388062
0.000318747
0.000264009
0.000218501
0.000178796
0.000141654
8.36429e-05
5.47892e-05
0.000148748
9.43305e-05
0.00454543
0.0158258
0.00134611
0.000258364
0.000175776
0.000166839
0.000165847
0.000167824
0.000173987
0.000187495
0.000211737
0.000248396
0.000297755
0.000359206
0.000427589
0.000488925
0.000528399
0.000582489
0.000627727
0.000483288
0.000393565
0.000331083
0.000282318
0.000248619
0.000247811
0.000226736
0.000202891
0.000181035
0.000162666
0.000146508
0.000131835
0.000118235
0.000105061
8.44215e-05
6.40813e-05
0.000105151
0.000138729
0.000160044
0.000374544
0.000324123
0.00676265
0.0248762
0.00255288
0.000318048
0.000155563
0.000137098
0.00013216
0.000130726
0.000134494
0.000148587
0.000176734
0.000218071
0.000270711
0.000333885
0.000401389
0.000462233
0.000502703
0.000521571
0.00050483
0.000438326
0.000373899
0.000315702
0.000264761
0.000223379
0.000193272
0.000169615
0.000150808
0.000135635
0.00012331
0.000112762
0.000103298
9.45212e-05
8.60653e-05
7.58774e-05
6.52646e-05
7.75061e-05
9.95899e-05
0.000213829
0.00109207
0.000551854
0.00967056
0.0336353
0.00458261
0.00046487
0.000150842
0.000116359
0.00010711
0.000103308
0.000107105
0.000127947
0.00016615
0.000215859
0.000273158
0.000339705
0.000408839
0.000469923
0.00050974
0.000520197
0.000494225
0.000437621
0.00037186
0.000307488
0.000250539
0.000204418
0.000169728
0.000144548
0.000126331
0.000112755
0.000102307
9.37373e-05
8.62333e-05
7.93355e-05
7.27741e-05
6.61163e-05
6.02934e-05
6.36191e-05
7.6654e-05
0.000177794
0.00164111
0.000910507
0.012757
0.0404058
0.00748849
0.000870879
0.000194204
0.000115367
9.73936e-05
9.14772e-05
9.86555e-05
0.000137751
0.000189317
0.000246216
0.000306847
0.000373415
0.000444196
0.000507437
0.000546875
0.000550602
0.000515521
0.00045146
0.000375443
0.000300893
0.000236418
0.000185917
0.000149289
0.000123978
0.000106726
9.45974e-05
8.57758e-05
7.88482e-05
7.29309e-05
6.75427e-05
6.24598e-05
5.76509e-05
5.39521e-05
5.55161e-05
7.00116e-05
0.000369502
0.00592518
0.00209462
0.0138263
0.0414626
0.0139298
0.00316104
0.000629105
0.000207802
0.000132632
0.000115997
0.000142457
0.000192954
0.000249313
0.000306359
0.000367111
0.000436174
0.000510444
0.000575069
0.00061035
0.000602757
0.000551871
0.000470736
0.000378282
0.000290731
0.000218121
0.000163943
0.000126749
0.000102615
8.73146e-05
7.73818e-05
7.07161e-05
6.57306e-05
6.15289e-05
5.76729e-05
5.40032e-05
5.06227e-05
4.83505e-05
5.14391e-05
9.35221e-05
0.00110586
0.0157817
0.00295855
0.0130043
0.0283756
0.0144146
0.00572359
0.00210217
0.000833594
0.000413306
0.00027676
0.000278944
0.000314577
0.00035607
0.000401613
0.000458312
0.000530417
0.000609366
0.000673343
0.000698124
0.000670145
0.000593379
0.000486266
0.000372243
0.000270368
0.000190947
0.000135676
0.000100669
7.99036e-05
6.80055e-05
6.12328e-05
5.71632e-05
5.42297e-05
5.16844e-05
4.92252e-05
4.68073e-05
4.4691e-05
4.41298e-05
5.29332e-05
0.000171852
0.00274697
0.0128047
0.00321195
0.0106906
0.0193616
0.0120391
0.00629858
0.00317273
0.00167347
0.000985948
0.000678548
0.000559745
0.000517182
0.000510297
0.000531279
0.000583404
0.000662353
0.000747007
0.000804609
0.000806843
0.000743579
0.000627395
0.000485321
0.000346869
0.000233069
0.000152276
0.000101738
7.35842e-05
5.88379e-05
5.13661e-05
4.7968e-05
4.61805e-05
4.48697e-05
4.3569e-05
4.21424e-05
4.07056e-05
3.99181e-05
4.26463e-05
6.57578e-05
0.000257022
0.00228848
0.0111763
0.00330109
0.00807386
0.0137725
0.00969278
0.00593262
0.00356864
0.00222649
0.00148996
0.00109219
0.000868775
0.000743249
0.000685684
0.000689937
0.000750378
0.000844656
0.000932235
0.000968419
0.000925883
0.000805109
0.000633996
0.000451034
0.000292037
0.000176806
0.00010686
6.94031e-05
5.24594e-05
4.43366e-05
4.05272e-05
3.91367e-05
3.8554e-05
3.81016e-05
3.74986e-05
3.67109e-05
3.60811e-05
3.7313e-05
4.84399e-05
0.000119381
0.000500753
0.00231184
0.00910154
0.00325276
0.00612463
0.0101675
0.00779121
0.0053123
0.00356983
0.00246872
0.00178752
0.00136786
0.00109268
0.000925853
0.000859093
0.000886626
0.000982966
0.00109799
0.00117034
0.00115093
0.00102729
0.000821491
0.000585161
0.000367292
0.000207492
0.00011418
7.19828e-05
5.21838e-05
4.27268e-05
3.79515e-05
3.56414e-05
3.4836e-05
3.45526e-05
3.43601e-05
3.40827e-05
3.383e-05
3.46057e-05
4.15509e-05
8.16673e-05
0.000272186
0.00091024
0.00270399
0.00690132
0.00287535
0.00617992
0.00781279
0.0068045
0.00473952
0.00336554
0.00246221
0.00186554
0.00146219
0.00119447
0.00106448
0.00107032
0.00118056
0.00133027
0.00143928
0.00144041
0.00130239
0.00105239
0.000742014
0.000455771
0.000237632
0.000130901
8.18758e-05
6.00164e-05
4.90743e-05
4.27961e-05
3.89013e-05
3.66127e-05
3.56103e-05
3.52208e-05
3.51359e-05
3.52669e-05
3.5924e-05
3.89998e-05
5.3516e-05
0.000119132
0.000370235
0.00110226
0.00277335
0.00547287
0.00257634
0.00454447
0.00511449
0.00418568
0.00336234
0.00264022
0.00207051
0.00164934
0.00136204
0.00124485
0.0013004
0.00147835
0.00168769
0.00182642
0.00181957
0.00164092
0.00130553
0.000911807
0.000520027
0.000279037
0.000155729
0.000102696
7.9612e-05
6.76681e-05
5.97432e-05
5.36883e-05
4.9068e-05
4.59823e-05
4.4569e-05
4.44099e-05
4.52294e-05
4.70192e-05
5.01896e-05
5.68434e-05
7.57868e-05
0.000139452
0.000348839
0.000937871
0.00229764
0.00537032
0.00274319
0.00140017
0.00143078
0.00143352
0.00135486
0.00131283
0.00142374
0.00170779
0.00204322
0.00230708
0.00240723
0.00229427
0.00198356
0.00153685
0.000984832
0.000571874
0.000314716
0.000189699
0.000137288
0.000115419
0.000103735
9.50854e-05
8.74083e-05
8.0496e-05
7.48898e-05
7.14217e-05
7.08202e-05
7.31972e-05
7.84239e-05
8.65764e-05
9.78515e-05
0.000113631
0.000140155
0.000198502
0.000349963
0.000764705
0.00207958
0.00423342
0.00333542
0.00118803
0.00171819
0.00195614
0.00231234
0.00275931
0.00316402
0.00334303
0.00330917
0.00308695
0.00269771
0.00213053
0.00151433
0.000981217
0.00057968
0.00034742
0.00023778
0.000193533
0.000174974
0.000164667
0.000156611
0.000149063
0.000141793
0.000135394
0.000131059
0.000130299
0.000134525
0.000144507
0.000160913
0.000184242
0.000214801
0.000253774
0.000306179
0.000387588
0.000540122
0.000892994
0.00230773
0.00371854
0.00355431
0.00741455
0.00805387
0.00480856
0.00340814
0.00374393
0.00415357
0.00416459
0.00395113
0.00359249
0.00313587
0.00262931
0.00208765
0.00154026
0.00105728
0.000695114
0.000471047
0.000362097
0.000316171
0.000296285
0.000286032
0.000279633
0.000274662
0.000269739
0.000264271
0.000258809
0.000255207
0.000256148
0.000264212
0.000280882
0.000308065
0.000347594
0.000401862
0.000475164
0.000577093
0.000729859
0.000984665
0.0014812
0.00303265
0.00469032
0.00359211
0.00650246
0.00512826
0.00436952
0.00462509
0.00454947
0.00428289
0.00370166
0.00305358
0.00246603
0.00197188
0.00156836
0.00124578
0.000995105
0.000811264
0.000684759
0.000596933
0.000537301
0.000499117
0.000477337
0.000468695
0.000470407
0.000479532
0.000492995
0.000508042
0.000522855
0.000537055
0.000551886
0.000570065
0.000596423
0.000635831
0.000694002
0.000778956
0.000903096
0.00108779
0.00137067
0.00180777
0.00247575
0.00381464
0.00641715
0.00350207
0.00536113
0.00337174
0.00332341
0.00362363
0.00388656
0.00355441
0.00296147
0.00235949
0.00184723
0.00143696
0.00111278
0.000859362
0.000669391
0.000539425
0.000463699
0.000431843
0.000422908
0.000428254
0.000443669
0.000466306
0.000493675
0.000523533
0.000554104
0.000584326
0.000614022
0.00064397
0.000675781
0.000711576
0.000753606
0.000804038
0.000865531
0.00094276
0.00104473
0.00118806
0.00139965
0.00171484
0.00216825
0.0027787
0.00351884
0.00285524
)
;

boundaryField
{
    floor
    {
        Cmu             0.09;
        kappa           0.41;
        E               9.8;
        type            epsilonWallFunction;
        value           nonuniform List<scalar> 
36
(
0.000860689
8.95052e-05
0.000262419
0.00026884
0.000249786
0.000219977
0.000184008
0.000152291
0.00012649
0.000105877
8.94132e-05
7.62663e-05
6.56174e-05
5.6825e-05
4.93622e-05
4.27565e-05
3.6509e-05
3.18113e-05
2.35966e-05
2.35966e-05
4.80624e-05
7.07325e-05
9.43305e-05
0.000160044
0.000374544
0.000324123
0.000860689
0.00112935
0.000978791
0.000858413
8.95052e-05
0.000858413
0.000511722
0.00158375
0.00102815
0.00156524
)
;
    }
    ceiling
    {
        Cmu             0.09;
        kappa           0.41;
        E               9.8;
        type            epsilonWallFunction;
        value           nonuniform List<scalar> 
43
(
0.00536113
0.00337174
0.00332341
0.00362363
0.00388656
0.00355441
0.00296147
0.00235949
0.00184723
0.00143696
0.00111278
0.000859362
0.000669391
0.000539425
0.000463699
0.000431843
0.000422908
0.000428254
0.000443669
0.000466306
0.000493675
0.000523533
0.000554104
0.000584326
0.000614022
0.00064397
0.000675781
0.000711576
0.000753606
0.000804038
0.000865531
0.00094276
0.00104473
0.00118806
0.00139965
0.00171484
0.00216825
0.0027787
0.00351884
0.00285524
0.00454447
0.00511449
0.00118803
)
;
    }
    sWall
    {
        Cmu             0.09;
        kappa           0.41;
        E               9.8;
        type            epsilonWallFunction;
        value           nonuniform List<scalar> 9(0.0130043 0.0106906 0.00807386 0.00612463 0.00617992 0.00454447 0.00741455 0.00650246 0.00536113);
    }
    nWall
    {
        Cmu             0.09;
        kappa           0.41;
        E               9.8;
        type            epsilonWallFunction;
        value           nonuniform List<scalar> 
14
(
0.000324123
0.000551854
0.000910507
0.00321195
0.00330109
0.00325276
0.00287535
0.00257634
0.00274319
0.00333542
0.00355431
0.00359211
0.00350207
0.00285524
)
;
    }
    sideWalls
    {
        type            empty;
    }
    glass1
    {
        Cmu             0.09;
        kappa           0.41;
        E               9.8;
        type            epsilonWallFunction;
        value           nonuniform List<scalar> 9(0.000253107 0.000796948 0.00163049 0.00285322 0.00454543 0.00676265 0.00967056 0.012757 0.0138263);
    }
    glass2
    {
        Cmu             0.09;
        kappa           0.41;
        E               9.8;
        type            epsilonWallFunction;
        value           nonuniform List<scalar> 2(0.00209462 0.00295855);
    }
    sun
    {
        Cmu             0.09;
        kappa           0.41;
        E               9.8;
        type            epsilonWallFunction;
        value           nonuniform List<scalar> 
14
(
0.000253107
0.000306339
0.000303012
0.000344215
0.000385118
0.000424972
0.000464467
0.00050479
0.000547673
0.000595835
0.000644302
0.00069269
0.000742643
0.000798965
)
;
    }
    Table_master
    {
        Cmu             0.09;
        kappa           0.41;
        E               9.8;
        type            epsilonWallFunction;
        value           nonuniform List<scalar> 9(0.000550797 0.000362103 0.000250394 0.00018111 0.000136148 0.000105825 8.47149e-05 6.97733e-05 5.94253e-05);
    }
    Table_slave
    {
        Cmu             0.09;
        kappa           0.41;
        E               9.8;
        type            epsilonWallFunction;
        value           nonuniform List<scalar> 9(0.000813825 0.000612245 0.000481418 0.000388062 0.000318747 0.000264009 0.000218501 0.000178796 0.000141654);
    }
    inlet
    {
        type            turbulentMixingLengthDissipationRateInlet;
        mixingLength    0.01;
        phi             phi;
        k               k;
        value           uniform 0.000471671;
    }
    outlet
    {
        type            zeroGradient;
    }
}


// ************************************************************************* //
