/*--------------------------------*- C++ -*----------------------------------*\
  =========                 |
  \\      /  F ield         | OpenFOAM: The Open Source CFD Toolbox
   \\    /   O peration     | Website:  https://openfoam.org
    \\  /    A nd           | Version:  6
     \\/     M anipulation  |
\*---------------------------------------------------------------------------*/
FoamFile
{
    version     2.0;
    format      ascii;
    class       volVectorField;
    location    "36199.999998387786";
    object      U;
}
// * * * * * * * * * * * * * * * * * * * * * * * * * * * * * * * * * * * * * //

dimensions      [0 1 -1 0 0 0 0];

internalField   nonuniform List<vector> 
778
(
(0.065598 0.0794092 0)
(-0.155177 0.015769 0)
(-0.164311 0.0146303 0)
(-0.192437 0.0122806 0)
(-0.216883 0.00872941 0)
(-0.236952 0.00474642 0)
(-0.252086 0.000416593 0)
(-0.261859 -0.00437219 0)
(-0.265755 -0.00981804 0)
(-0.262774 -0.0162009 0)
(-0.250961 -0.0242764 0)
(-0.226251 -0.034896 0)
(-0.186119 -0.0504169 0)
(-0.144187 -0.0751864 0)
(-0.150098 -0.108577 0)
(0.0546302 0.035436 0)
(0.015714 -0.0268427 0)
(0.044864 -0.0232358 0)
(0.0692163 -0.0161336 0)
(0.0842291 -0.0103325 0)
(0.091408 -0.00640908 0)
(0.0942362 -0.00433807 0)
(0.0952757 -0.00331534 0)
(0.0957331 -0.00272694 0)
(0.0959024 -0.00231323 0)
(0.0957741 -0.00194913 0)
(0.0952454 -0.0015101 0)
(0.093989 -0.000758552 0)
(0.0911482 0.000841969 0)
(0.0849576 0.00405874 0)
(0.0734467 0.0077528 0)
(0.0598457 0.0115794 0)
(-0.00801743 0.0299478 0)
(0.258396 0.167395 0)
(-0.161235 0.0483988 0)
(-0.141612 0.0459927 0)
(-0.174025 0.0416293 0)
(-0.199399 0.0356824 0)
(-0.22013 0.0291414 0)
(-0.236168 0.0220658 0)
(-0.247426 0.0142297 0)
(-0.253602 0.00529076 0)
(-0.253916 -0.00516515 0)
(-0.247755 -0.0170995 0)
(-0.234043 -0.030868 0)
(-0.214131 -0.048091 0)
(-0.197554 -0.0699719 0)
(-0.194035 -0.0826572 0)
(-0.16641 -0.04259 0)
(-0.105338 -0.0364161 0)
(-0.0983395 -0.0444963 0)
(0.109335 -0.0420151 0)
(0.0644474 -0.0410855 0)
(0.0718391 -0.0321893 0)
(0.0857649 -0.020638 0)
(0.093609 -0.0103988 0)
(0.0958091 -0.00362187 0)
(0.0955627 -0.000201792 0)
(0.0951789 0.00124424 0)
(0.0951461 0.00189761 0)
(0.0952285 0.00227421 0)
(0.0952356 0.00259517 0)
(0.095135 0.00313359 0)
(0.0948436 0.00440925 0)
(0.0935873 0.00771681 0)
(0.0879939 0.0167354 0)
(0.0742526 0.0252837 0)
(0.06298 0.0328511 0)
(-0.0521622 0.0634669 0)
(0.429975 0.253958 0)
(-0.194231 0.0847704 0)
(-0.112786 0.0784519 0)
(-0.14826 0.0669788 0)
(-0.170701 0.0555235 0)
(-0.188804 0.0437475 0)
(-0.202649 0.0313578 0)
(-0.212346 0.0180117 0)
(-0.217699 0.00339242 0)
(-0.218054 -0.0126484 0)
(-0.212793 -0.0303475 0)
(-0.201682 -0.0499339 0)
(-0.18604 -0.0715911 0)
(-0.169508 -0.0932295 0)
(-0.151143 -0.104579 0)
(-0.120307 -0.0931642 0)
(-0.0796177 -0.0949733 0)
(-0.0715712 -0.107617 0)
(0.0920579 -0.0880895 0)
(0.062508 -0.0656465 0)
(0.0742855 -0.0460032 0)
(0.0878811 -0.029109 0)
(0.0946617 -0.0147551 0)
(0.0917045 -0.0119466 0)
(0.0874801 -0.00794382 0)
(0.0851166 -0.00579565 0)
(0.0844162 -0.00457155 0)
(0.0843892 -0.00380267 0)
(0.0846478 -0.00322583 0)
(0.0853035 -0.00259821 0)
(0.0870649 -0.00144113 0)
(0.0917437 0.00291343 0)
(0.0898823 0.0250869 0)
(0.0730629 0.0422831 0)
(0.0698955 0.0572835 0)
(-0.0903908 0.100667 0)
(0.578544 0.325844 0)
(-0.2401 0.121824 0)
(-0.0808399 0.109248 0)
(-0.121588 0.0898847 0)
(-0.139029 0.0741018 0)
(-0.153099 0.0586651 0)
(-0.163866 0.0427739 0)
(-0.171467 0.0258176 0)
(-0.175681 0.00719134 0)
(-0.175745 -0.0135512 0)
(-0.171053 -0.0364972 0)
(-0.161482 -0.0614805 0)
(-0.147617 -0.0873855 0)
(-0.130649 -0.1103 0)
(-0.109705 -0.123196 0)
(-0.0822433 -0.124542 0)
(-0.0526495 -0.126379 0)
(-0.0335285 -0.123166 0)
(0.0161404 -0.0567908 0)
(0.0606727 -0.0929825 0)
(0.0683421 -0.0790798 0)
(0.078974 -0.058686 0)
(0.0914725 -0.0394238 0)
(0.102828 -0.0207517 0)
(0.115568 -0.0131015 0)
(0.126662 -0.00876394 0)
(0.132208 -0.00558087 0)
(0.13316 -0.00308798 0)
(0.130618 -0.000870691 0)
(0.125143 0.0012969 0)
(0.116603 0.00367916 0)
(0.10423 0.00673622 0)
(0.0849541 0.0111669 0)
(0.0710837 0.0368418 0)
(0.0597702 0.060486 0)
(0.075961 0.0831092 0)
(-0.118482 0.136636 0)
(0.705729 0.383685 0)
(-0.287677 0.157021 0)
(-0.0476999 0.133813 0)
(-0.096304 0.106958 0)
(-0.10776 0.0876391 0)
(-0.116803 0.0692155 0)
(-0.123602 0.050481 0)
(-0.128271 0.0306062 0)
(-0.130635 0.00872281 0)
(-0.129829 -0.0158398 0)
(-0.125326 -0.0431066 0)
(-0.116698 -0.0727068 0)
(-0.103978 -0.102826 0)
(-0.0875145 -0.129061 0)
(-0.0675729 -0.14575 0)
(-0.0442449 -0.152233 0)
(-0.0203951 -0.152352 0)
(0.000127956 -0.143713 0)
(0.0306555 -0.11497 0)
(0.0568262 -0.109303 0)
(0.0704111 -0.0923389 0)
(0.0805583 -0.0711298 0)
(0.0906244 -0.0506525 0)
(0.100183 -0.0326123 0)
(0.109274 -0.0192777 0)
(0.11626 -0.00993247 0)
(0.119645 -0.00325728 0)
(0.11981 0.00197947 0)
(0.117374 0.00651045 0)
(0.112705 0.0108518 0)
(0.105828 0.0155174 0)
(0.0966677 0.0212102 0)
(0.0847125 0.0292265 0)
(0.0731059 0.0472513 0)
(0.0624985 0.071262 0)
(0.0940207 0.0992208 0)
(0.0156595 0.137811 0)
(0.0949901 0.183038 0)
(0.14125 0.144865 0)
(-0.221842 0.202838 0)
(0.810447 0.431978 0)
(-0.33132 0.190691 0)
(-0.0173133 0.150286 0)
(-0.0733789 0.117569 0)
(-0.0786085 0.0955673 0)
(-0.0822408 0.0750005 0)
(-0.0845072 0.0543894 0)
(-0.0855563 0.0327499 0)
(-0.0853105 0.00886923 0)
(-0.0826416 -0.0184234 0)
(-0.0774738 -0.0490489 0)
(-0.0688432 -0.0825151 0)
(-0.0568435 -0.11649 0)
(-0.0417842 -0.146261 0)
(-0.0247847 -0.165947 0)
(-0.00639857 -0.174451 0)
(0.0119916 -0.172714 0)
(0.027897 -0.160977 0)
(0.046053 -0.139287 0)
(0.0624949 -0.122289 0)
(0.0731603 -0.102403 0)
(0.0808351 -0.0803149 0)
(0.0875852 -0.0589445 0)
(0.0937521 -0.040061 0)
(0.0990588 -0.0249045 0)
(0.102713 -0.0135763 0)
(0.104281 -0.0049145 0)
(0.103822 0.00224643 0)
(0.101649 0.00868421 0)
(0.0980082 0.0149225 0)
(0.0930542 0.0214955 0)
(0.0870079 0.0290451 0)
(0.0801109 0.0384918 0)
(0.0742758 0.0529846 0)
(0.0688312 0.0730384 0)
(0.0906732 0.0987124 0)
(0.0719824 0.107155 0)
(0.0884102 0.0470954 0)
(0.146267 -0.038231 0)
(-0.330623 0.107334 0)
(0.879942 0.474687 0)
(-0.368647 0.220974 0)
(0.0037358 0.155602 0)
(-0.0526711 0.121628 0)
(-0.0522219 0.0979195 0)
(-0.0510547 0.0758911 0)
(-0.0490657 0.0541059 0)
(-0.0465642 0.0315801 0)
(-0.043394 0.0067959 0)
(-0.0374472 -0.0222984 0)
(-0.0303789 -0.0553826 0)
(-0.0205957 -0.091947 0)
(-0.00878056 -0.128875 0)
(0.00444441 -0.161189 0)
(0.0175359 -0.181833 0)
(0.0303431 -0.190167 0)
(0.0421606 -0.187183 0)
(0.0524624 -0.174372 0)
(0.0624206 -0.154008 0)
(0.0709816 -0.13233 0)
(0.0764904 -0.109276 0)
(0.0799329 -0.0857332 0)
(0.0825075 -0.0635202 0)
(0.0847129 -0.0440011 0)
(0.086505 -0.0279063 0)
(0.0875524 -0.0151375 0)
(0.0876412 -0.00491058 0)
(0.0866268 0.00369925 0)
(0.0847096 0.0113789 0)
(0.082036 0.0186603 0)
(0.0787801 0.0260576 0)
(0.0752121 0.0340927 0)
(0.0717102 0.043347 0)
(0.0696008 0.0551379 0)
(0.0681584 0.0698473 0)
(0.0807378 0.08911 0)
(0.08295 0.0922347 0)
(0.0874258 0.0536319 0)
(0.181169 0.022987 0)
(-0.284073 0.154005 0)
(0.92801 0.517137 0)
(-0.383183 0.234184 0)
(0.0169291 0.133035 0)
(-0.0273332 0.116728 0)
(-0.0265618 0.0950028 0)
(-0.0227697 0.0725131 0)
(-0.0176777 0.0501827 0)
(-0.0124226 0.0273137 0)
(-0.00550377 0.0019193 0)
(0.00447602 -0.0307299 0)
(0.0141807 -0.0653361 0)
(0.0254767 -0.103339 0)
(0.0371298 -0.140844 0)
(0.0478323 -0.172104 0)
(0.0569564 -0.192288 0)
(0.0644734 -0.19977 0)
(0.0702089 -0.195345 0)
(0.0741643 -0.18114 0)
(0.0768541 -0.160037 0)
(0.0781976 -0.136011 0)
(0.0778154 -0.110955 0)
(0.0762822 -0.0863803 0)
(0.0744252 -0.0637702 0)
(0.0727664 -0.0441377 0)
(0.0714432 -0.0278718 0)
(0.070326 -0.0146941 0)
(0.0692298 -0.0039046 0)
(0.0678677 0.00527964 0)
(0.0663704 0.0134456 0)
(0.064713 0.0210922 0)
(0.0629808 0.0286662 0)
(0.0613591 0.0365528 0)
(0.0601325 0.0450922 0)
(0.0601159 0.0548252 0)
(0.0610115 0.065792 0)
(0.0692069 0.0795802 0)
(0.0774358 0.0831456 0)
(0.0746155 0.0609347 0)
(0.239823 0.0488082 0)
(-0.556692 0.22942 0)
(1.01135 0.506803 0)
(-0.137343 0.296335 0)
(0.0410878 0.161538 0)
(0.040574 0.122141 0)
(0.0130598 0.0920508 0)
(0.00863953 0.0654537 0)
(0.0140468 0.041478 0)
(0.0206507 0.0170535 0)
(0.0324339 -0.010972 0)
(0.0438801 -0.0421291 0)
(0.0557352 -0.0769143 0)
(0.0680089 -0.114652 0)
(0.0791598 -0.151108 0)
(0.087688 -0.180558 0)
(0.0929404 -0.198572 0)
(0.0950187 -0.203729 0)
(0.0943263 -0.197072 0)
(0.0914098 -0.181015 0)
(0.0869475 -0.1586 0)
(0.0813926 -0.133137 0)
(0.075039 -0.107056 0)
(0.0684831 -0.0821847 0)
(0.0624426 -0.059893 0)
(0.0574331 -0.0409209 0)
(0.0536457 -0.0253718 0)
(0.0509867 -0.0127602 0)
(0.0492004 -0.00231204 0)
(0.0478912 0.00667082 0)
(0.0470572 0.0146954 0)
(0.0464766 0.0222186 0)
(0.0461117 0.0296006 0)
(0.0460255 0.0371028 0)
(0.0463595 0.0449107 0)
(0.0475338 0.0532442 0)
(0.049381 0.0620392 0)
(0.0546916 0.0721033 0)
(0.061083 0.074064 0)
(0.0475568 0.0485041 0)
(0.293063 0.0697804 0)
(-0.794501 0.299581 0)
(0.779371 0.395723 0)
(0.000703936 0.319485 0)
(0.0933559 0.218911 0)
(0.110569 0.155186 0)
(0.0771297 0.106861 0)
(0.0597565 0.0676052 0)
(0.0581711 0.0358328 0)
(0.0623239 0.00648202 0)
(0.0737279 -0.0233811 0)
(0.085281 -0.0550175 0)
(0.0974625 -0.0897615 0)
(0.109325 -0.126294 0)
(0.118711 -0.160085 0)
(0.123841 -0.185795 0)
(0.124106 -0.199857 0)
(0.119923 -0.201435 0)
(0.112238 -0.191895 0)
(0.102122 -0.173785 0)
(0.0906183 -0.150128 0)
(0.0785679 -0.123952 0)
(0.0666604 -0.0977887 0)
(0.0556211 -0.073557 0)
(0.0461698 -0.0525242 0)
(0.0387714 -0.0351506 0)
(0.033529 -0.021251 0)
(0.0302213 -0.0100659 0)
(0.0284043 -0.000687014 0)
(0.0276218 0.00751631 0)
(0.0276238 0.0149953 0)
(0.0280827 0.0221354 0)
(0.0288785 0.0291873 0)
(0.0299719 0.0363068 0)
(0.0313606 0.0435978 0)
(0.0331311 0.0511943 0)
(0.0348372 0.0592244 0)
(0.0365483 0.0687552 0)
(0.026853 0.0762052 0)
(0.0151236 0.0929577 0)
(0.10218 0.161872 0)
(-0.666361 0.287402 0)
(0.617302 0.220879 0)
(0.00455861 0.29812 0)
(0.113009 0.241537 0)
(0.148279 0.177551 0)
(0.13084 0.123522 0)
(0.117815 0.0778699 0)
(0.114944 0.0389442 0)
(0.117093 0.00345951 0)
(0.123434 -0.0306572 0)
(0.13164 -0.0649698 0)
(0.141313 -0.1005 0)
(0.15019 -0.135411 0)
(0.155331 -0.165311 0)
(0.154806 -0.185859 0)
(0.148291 -0.194746 0)
(0.13668 -0.191997 0)
(0.121439 -0.179363 0)
(0.104071 -0.159414 0)
(0.085951 -0.135055 0)
(0.0681842 -0.109065 0)
(0.051715 -0.0839146 0)
(0.0374009 -0.0614657 0)
(0.0259769 -0.0428365 0)
(0.0177133 -0.0280979 0)
(0.0124102 -0.0166998 0)
(0.00945776 -0.00752268 0)
(0.00814026 0.000390976 0)
(0.00814389 0.00756218 0)
(0.00891298 0.0143599 0)
(0.0102116 0.021043 0)
(0.0118992 0.0277538 0)
(0.0138727 0.0345781 0)
(0.0160309 0.0415914 0)
(0.0183285 0.0489584 0)
(0.0206131 0.0571669 0)
(0.0226671 0.068587 0)
(0.00873046 0.0884279 0)
(-0.00788462 0.126447 0)
(0.194082 0.175623 0)
(-0.568148 0.213766 0)
(0.570772 0.118547 0)
(-0.0203705 0.258631 0)
(0.113723 0.229871 0)
(0.16507 0.17605 0)
(0.166734 0.126199 0)
(0.164389 0.0811438 0)
(0.165361 0.0400433 0)
(0.16824 0.00171406 0)
(0.172179 -0.0353083 0)
(0.17773 -0.0718523 0)
(0.183885 -0.107561 0)
(0.187572 -0.139659 0)
(0.185771 -0.164256 0)
(0.177102 -0.178528 0)
(0.162007 -0.181676 0)
(0.142022 -0.174596 0)
(0.119092 -0.159331 0)
(0.0949749 -0.138318 0)
(0.0712723 -0.114268 0)
(0.0492108 -0.0896637 0)
(0.0299544 -0.0668763 0)
(0.0144599 -0.0476287 0)
(0.00332232 -0.0327186 0)
(-0.00388116 -0.021379 0)
(-0.00782611 -0.0129338 0)
(-0.00981614 -0.00580102 0)
(-0.0104453 0.000686846 0)
(-0.00995095 0.00686452 0)
(-0.00871987 0.012974 0)
(-0.0068922 0.0191598 0)
(-0.00461282 0.0255136 0)
(-0.00204461 0.0321084 0)
(0.000619338 0.0390559 0)
(0.00324727 0.0464724 0)
(0.00600575 0.0549527 0)
(0.00713345 0.0695715 0)
(-0.0102725 0.0995169 0)
(-0.0236756 0.130506 0)
(0.210569 0.178596 0)
(-0.525009 0.206392 0)
(0.628353 0.0538281 0)
(0.00913245 0.197317 0)
(0.113842 0.196922 0)
(0.175169 0.157918 0)
(0.191429 0.117706 0)
(0.198082 0.0773305 0)
(0.203392 0.037366 0)
(0.208563 -0.00139388 0)
(0.213026 -0.0395481 0)
(0.217305 -0.0764459 0)
(0.219104 -0.109915 0)
(0.215258 -0.13678 0)
(0.203874 -0.154422 0)
(0.185034 -0.161838 0)
(0.160357 -0.15959 0)
(0.132013 -0.14909 0)
(0.102267 -0.132427 0)
(0.0728428 -0.111689 0)
(0.0455381 -0.0893967 0)
(0.0215288 -0.0677071 0)
(0.00237198 -0.0489349 0)
(-0.0111477 -0.0345551 0)
(-0.0191689 -0.0246497 0)
(-0.023866 -0.0170558 0)
(-0.0264352 -0.010711 0)
(-0.0276833 -0.00495418 0)
(-0.0278935 0.000493597 0)
(-0.0271869 0.00583563 0)
(-0.0257135 0.0112582 0)
(-0.0235669 0.0169028 0)
(-0.0209125 0.022897 0)
(-0.0180109 0.0293779 0)
(-0.015286 0.0365375 0)
(-0.0132089 0.0447175 0)
(-0.0123045 0.0555648 0)
(-0.0183863 0.0774797 0)
(-0.0419722 0.111784 0)
(-0.038512 0.136822 0)
(0.0788875 0.181055 0)
(-0.53083 0.206965 0)
(0.473064 0.0748472 0)
(-0.132166 0.137544 0)
(0.0942953 0.133225 0)
(0.172803 0.116756 0)
(0.20392 0.0953501 0)
(0.218198 0.0644593 0)
(0.22815 0.0285045 0)
(0.237171 -0.00881048 0)
(0.24351 -0.0451645 0)
(0.244989 -0.0781491 0)
(0.238986 -0.105077 0)
(0.224135 -0.123867 0)
(0.200945 -0.133645 0)
(0.171329 -0.134859 0)
(0.137882 -0.128778 0)
(0.102921 -0.116685 0)
(0.0688119 -0.10047 0)
(0.0367678 -0.0817428 0)
(0.00923836 -0.063015 0)
(-0.0131566 -0.0461072 0)
(-0.0271055 -0.034524 0)
(-0.0356504 -0.0262645 0)
(-0.0405958 -0.0198895 0)
(-0.0435328 -0.0143428 0)
(-0.0452153 -0.00927352 0)
(-0.045992 -0.0044973 0)
(-0.0459287 8.76132e-05 0)
(-0.0450728 0.00462548 0)
(-0.0434084 0.00930699 0)
(-0.0409882 0.0143498 0)
(-0.037988 0.0199869 0)
(-0.0347413 0.0265035 0)
(-0.0318901 0.0343509 0)
(-0.0303371 0.0445003 0)
(-0.0306317 0.0600251 0)
(-0.0375597 0.0888529 0)
(-0.0609457 0.131553 0)
(-0.0575557 0.163611 0)
(-0.0438796 0.169239 0)
(-0.562036 0.124072 0)
(0.724222 0.134512 0)
(0.0818422 0.115275 0)
(0.149799 0.0991405 0)
(0.22248 0.0804036 0)
(0.244159 0.0699138 0)
(0.248948 0.0477501 0)
(0.255202 0.0177143 0)
(0.26128 -0.0145013 0)
(0.260278 -0.0445299 0)
(0.249764 -0.0694116 0)
(0.22948 -0.0874085 0)
(0.200981 -0.0980288 0)
(0.166636 -0.101561 0)
(0.129005 -0.0990238 0)
(0.0906378 -0.0917154 0)
(0.0530266 -0.080336 0)
(0.0190295 -0.0665884 0)
(-0.0117876 -0.0516026 0)
(-0.0333059 -0.0399881 0)
(-0.0474717 -0.031708 0)
(-0.0558543 -0.0259938 0)
(-0.0608679 -0.0212847 0)
(-0.0639408 -0.0168978 0)
(-0.0658859 -0.0125686 0)
(-0.0670328 -0.00836078 0)
(-0.0674837 -0.00435097 0)
(-0.0672185 -0.000532741 0)
(-0.0661855 0.00321439 0)
(-0.0643692 0.00710408 0)
(-0.0617089 0.0114489 0)
(-0.0583237 0.0166135 0)
(-0.0544521 0.0230662 0)
(-0.0505954 0.0315484 0)
(-0.0473796 0.0434907 0)
(-0.0438606 0.0619915 0)
(-0.039172 0.0930698 0)
(-0.0438647 0.141097 0)
(-0.033103 0.192881 0)
(0.0820063 0.185439 0)
(-0.525174 0.0257375 0)
(0.19197 0.0878963 0)
(0.225803 0.0996456 0)
(0.246592 0.070131 0)
(0.24265 0.039973 0)
(0.239801 0.0124132 0)
(0.234834 -0.0125643 0)
(0.220145 -0.0330611 0)
(0.196425 -0.0482361 0)
(0.165976 -0.0580464 0)
(0.131236 -0.0629484 0)
(0.0940031 -0.063243 0)
(0.0563084 -0.0597283 0)
(0.0202066 -0.0533648 0)
(-0.0149031 -0.0444095 0)
(-0.0415777 -0.0362554 0)
(-0.0612574 -0.0298791 0)
(-0.0739943 -0.025934 0)
(-0.0818852 -0.0231769 0)
(-0.0867958 -0.0206998 0)
(-0.0901071 -0.0178258 0)
(-0.0924586 -0.0145384 0)
(-0.094116 -0.0110453 0)
(-0.0951674 -0.00758978 0)
(-0.0956268 -0.00432235 0)
(-0.0954637 -0.00125952 0)
(-0.0945855 0.00171718 0)
(-0.092994 0.00479971 0)
(-0.0904926 0.00832493 0)
(-0.0869853 0.0127441 0)
(-0.0823346 0.0186125 0)
(-0.0764666 0.0267167 0)
(-0.0692594 0.0383745 0)
(-0.0591768 0.0559486 0)
(-0.0427107 0.0831951 0)
(-0.0243421 0.124216 0)
(-0.00838142 0.180192 0)
(0.158444 0.176112 0)
(-0.394557 0.0743049 0)
(0.45111 0.20948 0)
(0.206162 0.178583 0)
(0.15261 0.118712 0)
(0.1396 0.0640839 0)
(0.128353 0.0260365 0)
(0.11433 0.00199439 0)
(0.0990502 -0.0126887 0)
(0.07793 -0.0217212 0)
(0.0529837 -0.0271849 0)
(0.0253903 -0.029497 0)
(-0.00513171 -0.0285994 0)
(-0.0347141 -0.025686 0)
(-0.0608034 -0.0223279 0)
(-0.0821667 -0.0198635 0)
(-0.0973275 -0.0192538 0)
(-0.1073 -0.0195956 0)
(-0.113625 -0.0200505 0)
(-0.118045 -0.0195548 0)
(-0.121561 -0.0178386 0)
(-0.124576 -0.0150593 0)
(-0.127157 -0.0116021 0)
(-0.129251 -0.00790381 0)
(-0.130797 -0.00437232 0)
(-0.131761 -0.00130966 0)
(-0.132146 0.0011493 0)
(-0.131916 0.00306384 0)
(-0.130972 0.00478518 0)
(-0.129048 0.006706 0)
(-0.125749 0.00921094 0)
(-0.120523 0.0127637 0)
(-0.112763 0.0180678 0)
(-0.101741 0.0262579 0)
(-0.0858366 0.0390107 0)
(-0.061883 0.0584968 0)
(-0.0295054 0.0873677 0)
(0.00162392 0.132371 0)
(0.182982 0.142836 0)
(-0.364221 0.131005 0)
(0.359145 -0.41611 0)
(-0.345769 -0.512245 0)
(-0.218111 -0.0275783 0)
(-0.0931808 0.110863 0)
(-0.0537251 0.092577 0)
(-0.031307 0.0546895 0)
(-0.0264132 0.0286249 0)
(-0.0313794 0.0119996 0)
(-0.0403313 0.00135797 0)
(-0.0510713 -0.00546553 0)
(-0.0650551 -0.0094864 0)
(-0.0809093 -0.0115863 0)
(-0.0974441 -0.0130826 0)
(-0.113138 -0.0153803 0)
(-0.126775 -0.0185036 0)
(-0.137121 -0.021694 0)
(-0.143599 -0.024635 0)
(-0.147521 -0.0267093 0)
(-0.150494 -0.0278404 0)
(-0.153489 -0.0280964 0)
(-0.156755 -0.0276442 0)
(-0.160206 -0.0266656 0)
(-0.163655 -0.0253253 0)
(-0.166902 -0.0237124 0)
(-0.169733 -0.0218112 0)
(-0.171912 -0.019541 0)
(-0.173227 -0.0168619 0)
(-0.173576 -0.0138447 0)
(-0.173026 -0.0108746 0)
(-0.171588 -0.00790931 0)
(-0.168914 -0.00477673 0)
(-0.164348 -0.00119348 0)
(-0.156927 0.00341295 0)
(-0.145398 0.00997987 0)
(-0.127745 0.019425 0)
(-0.100593 0.0320347 0)
(-0.0612377 0.0485829 0)
(-0.0156233 0.0769379 0)
(0.19753 0.118173 0)
(-0.445877 0.197435 0)
(0.122567 -0.185922 0)
(-0.388248 -0.297842 0)
(-0.343238 -0.0964834 0)
(-0.26498 0.0513606 0)
(-0.211294 0.0833286 0)
(-0.179149 0.0744399 0)
(-0.162839 0.0610659 0)
(-0.156784 0.0512573 0)
(-0.156783 0.0462818 0)
(-0.160001 0.0458882 0)
(-0.16455 0.0491982 0)
(-0.168873 0.0549642 0)
(-0.172097 0.061772 0)
(-0.174039 0.0676983 0)
(-0.175107 0.0700671 0)
(-0.17617 0.0661874 0)
(-0.177998 0.0600086 0)
(-0.180923 0.0550772 0)
(-0.18481 0.0526144 0)
(-0.189256 0.0523995 0)
(-0.193786 0.053791 0)
(-0.197977 0.0561162 0)
(-0.201537 0.0587015 0)
(-0.204324 0.0608536 0)
(-0.206309 0.06192 0)
(-0.207507 0.0614644 0)
(-0.20789 0.0594837 0)
(-0.20737 0.056448 0)
(-0.206041 0.0530921 0)
(-0.203929 0.0493516 0)
(-0.200821 0.0449793 0)
(-0.196189 0.0396206 0)
(-0.189244 0.0329709 0)
(-0.179251 0.0248035 0)
(-0.16564 0.0141159 0)
(-0.146722 -0.00182994 0)
(-0.116911 -0.0229322 0)
(-0.0633351 -0.0306908 0)
(0.203054 0.0558634 0)
(-0.543961 0.249805 0)
(1.14875 -0.0108584 0)
(-0.297128 -0.32284 0)
(-0.353152 -0.232461 0)
(-0.352873 -0.148175 0)
(-0.329264 -0.106986 0)
(-0.29775 -0.0984441 0)
(-0.270543 -0.100558 0)
(-0.250654 -0.106031 0)
(-0.237011 -0.113214 0)
(-0.22746 -0.122077 0)
(-0.220129 -0.133112 0)
(-0.213886 -0.146747 0)
(-0.208401 -0.16252 0)
(-0.204014 -0.178378 0)
(-0.201642 -0.190519 0)
(-0.202553 -0.195246 0)
(-0.207438 -0.194765 0)
(-0.215272 -0.191175 0)
(-0.224408 -0.186125 0)
(-0.233426 -0.18079 0)
(-0.241384 -0.175826 0)
(-0.247747 -0.171451 0)
(-0.25227 -0.167563 0)
(-0.254952 -0.163887 0)
(-0.256033 -0.160094 0)
(-0.25597 -0.155913 0)
(-0.255299 -0.151207 0)
(-0.254425 -0.145987 0)
(-0.253514 -0.140326 0)
(-0.252698 -0.134316 0)
(-0.252273 -0.128102 0)
(-0.252661 -0.12167 0)
(-0.254588 -0.114573 0)
(-0.259652 -0.105557 0)
(-0.270049 -0.092301 0)
(-0.284614 -0.0712386 0)
(-0.292212 -0.036311 0)
(-0.2796 0.0223294 0)
(-0.285541 0.109614 0)
(-0.656381 0.220491 0)
)
;

boundaryField
{
    floor
    {
        type            noSlip;
    }
    ceiling
    {
        type            noSlip;
    }
    sWall
    {
        type            noSlip;
    }
    nWall
    {
        type            noSlip;
    }
    sideWalls
    {
        type            empty;
    }
    glass1
    {
        type            noSlip;
    }
    glass2
    {
        type            noSlip;
    }
    sun
    {
        type            noSlip;
    }
    Table_master
    {
        type            noSlip;
    }
    Table_slave
    {
        type            noSlip;
    }
    inlet
    {
        type            fixedValue;
        value           uniform (0.5 0 0);
    }
    outlet
    {
        type            zeroGradient;
    }
}


// ************************************************************************* //
