/*--------------------------------*- C++ -*----------------------------------*=========                 |
  \      /  F ield         | OpenFOAM: The Open Source CFD Toolbox
   \    /   O peration     | Website:  https://openfoam.org
    \  /    A nd           | Version:  6
     \/     M anipulation  |
\*---------------------------------------------------------------------------*/
FoamFile
{
    version     2.0;
    format      ascii;
    class       volScalarField;
    location    "510";
    object      PMV;
}
// * * * * * * * * * * * * * * * * * * * * * * * * * * * * * * * * * * * * * //

dimensions      [0 0 0 0 0 0 0];

internalField   nonuniform List<scalar> 
458
(
1.3246570797996158
1.078858458570455
1.0455251215625876
1.0166140907869083
0.9986872757137686
0.9901172797916359
0.9927965898806095
1.0072448640962521
1.0367688141436973
1.085194762942358
1.1562346339124647
1.2257362972103145
1.2414919063642373
1.249608118243133
1.2620207177834084
1.3784787984581632
1.3651177781629351
1.361300186218411
1.3679809265976899
1.3727527530403472
1.3765701345238626
1.3724964504548158
1.368626009260982
1.369091954399444
1.3714253515671218
1.3743806236011047
1.3776220532872165
1.3824200874507475
1.3888390619812192
1.400081906933248
1.409014911374687
1.4137857381729881
1.4280974728252038
1.2573635069864266
1.090939784298759
1.0782988898107184
1.0498171954468136
1.0330424461791936
1.0246944666761664
1.025939691028744
1.03448433053112
1.0489771324575057
1.0737878210456433
1.1142182724187126
1.1757165883115035
1.238149873811564
1.2491307000857377
1.2539094835270728
1.2120059543434964
1.2130791318789977
1.2361060630423732
1.332919977473589
1.3517559073172294
1.3512786822998013
1.3593913644350586
1.3619710642952465
1.361665534270105
1.3617346455932908
1.3633349696167518
1.3645120433695672
1.3647895831391834
1.365234453496004
1.3665157057607578
1.3681028873879548
1.3712188431005368
1.3802752186802099
1.3889761259957834
1.3956559530992894
1.3796058538625988
1.288592468611893
1.0820661620067833
1.111585275812851
1.0961042195835902
1.089426373047352
1.0859053119221915
1.085910950526227
1.082316018210689
1.0685826677713375
1.056812956936819
1.068158458527902
1.1176813959008214
1.2106396457479998
1.2558144841152232
1.2620207177834084
1.2648850879778293
1.2640783785160044
1.2459889959766763
1.242914827495648
1.3059177708131153
1.3148911386440774
1.3237423462348183
1.3350228152000838
1.3392128323940973
1.3618308403627193
1.3765701345238626
1.3770473021893497
1.3770473021893497
1.377524468734475
1.378001634157909
1.3784787984581632
1.3794331236834039
1.3822960722540838
1.3856361272062432
1.3786679219416622
1.3066964275714856
1.3628114665433813
1.075345804175005
1.1352726540902063
1.1463989629391553
1.1636406728312618
1.1752834399567045
1.1773062108827952
1.1523445514494695
1.0942511559033328
1.040608977647527
1.0288649046618348
1.0763452989155897
1.1692755060579028
1.2622817581743717
1.275864902573031
1.2772970200702287
1.2490297943356663
1.2248825335390021
1.175075515988728
1.241262730372281
1.277771022469479
1.3043231743715673
1.335034113398628
1.370173376980183
1.3968248808381123
1.3912533987332838
1.385708310889599
1.3851891027427063
1.3865574229669662
1.3897239211832382
1.396890295285752
1.410149855958647
1.4334600811754228
1.4323511507034883
1.4176023109153355
1.3587109894413072
1.2627114232090462
1.4574797912780029
1.0842224121628985
1.1528475648603982
1.1910110734933073
1.2463590348571199
1.2937959512647876
1.3020710179978587
1.2276980332010987
1.115591293329932
1.0261948433045542
1.0001614340524152
1.0501017902603942
1.1457992198593674
1.2488774610926219
1.29591384808324
1.2973458567595093
1.2841289654307302
1.2554514955177758
1.2548215366064235
1.2708803607145298
1.3028516411973001
1.3437272721235378
1.386144305495178
1.4270624544462913
1.455763527902102
1.4674246140179692
1.4690045786058727
1.4688190329774353
1.4677759931026797
1.464995181631979
1.4630737198841106
1.4624688730318933
1.4616540769765387
1.4463097032130547
1.419300661446863
1.3437813998852703
1.3438652715770594
1.3423525410613755
1.4268591645713635
1.3055586695986598
1.5544947645344622
1.1143979893472835
1.1841524833231094
1.22307325063993
1.3086233301923906
1.3837275312217625
1.4162362971204305
1.2555170527197193
1.113655939569573
1.0089873396670328
0.9797894898218105
1.034494851257044
1.1416518407810472
1.2610373050483838
1.3240751724579463
1.3298024965465456
1.327416128574309
1.3288479522964876
1.3395890597277396
1.3607762566754427
1.3951023549559234
1.42857451106275
1.4567174494716322
1.479609892500395
1.4967770449391484
1.508697533915085
1.5163261404097013
1.5210938150010538
1.5230008403203545
1.5220473308542077
1.5177564594151904
1.5110815163701183
1.4937988225866115
1.4638437900291956
1.4263214133335123
1.3555702961867977
1.348630123727969
1.3420998081504796
1.367477731253921
1.3753467661841
1.6468245678737683
1.201258304701743
1.3036364772534699
1.2821824450473567
1.3378412154526456
1.4176023109153355
1.3485281229292083
1.2254200914988307
1.0824151960479198
0.9790101071213392
0.9608403911929154
1.0346926553735651
1.1655650497783958
1.3093579250398262
1.3632089908243366
1.3741842794418668
1.3746614526874852
1.3803874443988204
1.398518665775542
1.4247581694594773
1.4533787000659362
1.4805636731284981
1.5039294530348073
1.521570573725183
1.533965735648769
1.541592978482567
1.545883115373455
1.5468364606480163
1.5463597888536649
1.543023039189586
1.5363492944727226
1.527291553509027
1.5163261404097013
1.4992653653288635
1.4544704205794512
1.3923505922295816
1.363031795912801
1.34204885384952
1.3139875973105524
1.420271078696446
1.7880332254238371
1.574358130372793
1.5160366578969984
1.399649451145639
1.3783857726274995
1.3666551035258143
1.2931564611954791
1.1491989338634367
0.9998031775701064
0.9195845702005564
0.9428420169356242
1.0639899556298553
1.2357098524887409
1.3741842794418668
1.4142628140965798
1.4266663504497936
1.4309596830249003
1.4409770516016158
1.461010028479779
1.4848556139280702
1.508697533915085
1.529198495214427
1.544453084835813
1.5554162626428865
1.561135821728603
1.563995507431843
1.5644721155933636
1.5635188975180114
1.5606592013393348
1.556369539771906
1.5501731158564689
1.541592978482567
1.5311054109572995
1.5187099975149063
1.5048830815226117
1.4901011579716337
1.4803786937201957
1.4529707073751663
1.3743733408584178
1.2878960702332678
1.9971109790123096
1.849608097940328
1.6884348460869938
1.5454119029891389
1.4541659947446113
1.3805199086593105
1.1818334618880857
0.9607187402760525
0.8313491952464265
0.8355543343490475
0.9573513977836379
1.166432603662869
1.361300186218411
1.439546034243423
1.4686410022266185
1.4810405612664586
1.4896242977186098
1.5024989988154174
1.5196635292756548
1.5373027064730178
1.553033039756275
1.5649487220008098
1.5708579276562478
1.5666174499852559
1.5610042014632768
1.5547418715813641
1.547110700436978
1.5381552400829683
1.5280286749017318
1.5161958645063425
1.5031212962069902
1.488287519150119
1.474367130273968
1.4575964792594511
1.4377071305015694
1.420060945314037
1.4082513585980003
1.4042152020865966
1.393891154890655
1.3632425580089471
-1.6677971304605668
-0.767894166851488
-0.2148414018212113
-0.0184406807649009
0.1292288168753172
0.3212605635038317
0.5698642694598485
0.8523957301741443
1.1511404124648876
1.3627317912881376
1.4605330807771137
1.477261743468224
1.4860991872087417
1.4948618067886106
1.5056541510237347
1.518533644292343
1.5309149528627544
1.539790800444569
1.5439957110887288
1.5442489034158726
1.542012996660252
1.5369483454970745
1.5308576884684213
1.523095855096972
1.51461116981684
1.5056583070238598
1.4972065051308845
1.4899056225129899
1.4837852445094073
1.4799996121380405
1.4772492446500118
1.4749309603359386
1.4730379378506888
1.4738087893370218
1.483829816585388
1.5206478371487162
1.5880235554838302
1.435784105775876
-1.679083443959781
-0.5958349725628279
-0.017440543824213103
0.3036038781108322
0.5188725973567497
0.7829743951087105
1.0605026892239264
1.28827633423555
1.378845950762495
1.4240599708789867
1.4524810637760508
1.4691621053686992
1.4805975659643666
1.4897451916825237
1.4984035743899236
1.5058864664200082
1.5124881707971136
1.517051537322148
1.5199195686325295
1.5205610444245028
1.5190608424097278
1.517015399858539
1.5135909888919936
1.5104130251901078
1.5071589146286732
1.5040112271465929
1.5016825137384526
1.50014392381521
1.5003408507738512
1.503043030010834
1.5098516778808508
1.5209550660475646
1.5336966662319964
1.5435591146253944
1.5542754337133813
1.5894706785243613
1.5371745859934285
1.4786645561585903
-1.1312005268357344
-1.130306290782741
-1.0066839047065386
-0.20375531911889738
0.3829383554840598
0.8013334821828231
1.0988890745668036
1.2442919191858455
1.3323058208448992
1.3859105420944167
1.420386223194359
1.4442675922324044
1.4592489664223827
1.4682494983506498
1.4734768192492993
1.477112705463442
1.479012535383904
1.479012828319969
1.477425334854687
1.475108482687568
1.4721137133166113
1.468962669276649
1.4663210764793304
1.4637678849212232
1.4619305592393839
1.4609803878067196
1.4611695153635664
1.462863345590534
1.4660714746864831
1.4725531719349538
1.4823921267730542
1.4966557490715873
1.519879658767286
1.5603523195693265
1.6183157151436942
1.6245087157116618
1.5964565091464284
1.5374398474587643
1.4860717819900715
1.4994726108616974
)
;

boundaryField
{
    ".*"
    {
        type            zeroGradient;
    }
}


// ************************************************************************* //
