/*--------------------------------*- C++ -*----------------------------------*=========                 |
  \      /  F ield         | OpenFOAM: The Open Source CFD Toolbox
   \    /   O peration     | Website:  https://openfoam.org
    \  /    A nd           | Version:  6
     \/     M anipulation  |
\*---------------------------------------------------------------------------*/
FoamFile
{
    version     2.0;
    format      ascii;
    class       volScalarField;
    location    "510";
    object      PPD;
}
// * * * * * * * * * * * * * * * * * * * * * * * * * * * * * * * * * * * * * //

dimensions      [0 0 0 0 0 0 0];

internalField   nonuniform List<scalar> 
458
(
41.538015699896604
29.55224731162714
28.072713097725398
26.822065266017106
26.0622028744682
25.703244633873595
25.815168034124923
26.42342285705479
27.690684283012914
29.837929895951717
33.133480932439326
36.510270635255246
37.29481501657774
37.70152227326422
38.32679609850219
44.36227161498817
43.65626205051943
43.45509964826127
43.80729831647813
44.059333090153665
44.261232737718565
44.045786084717484
43.84134711793931
43.865945107537996
43.98918458190851
44.14540075548197
44.316910723896676
44.57109935301565
44.91173713105279
45.5098910748837
45.986473586549856
46.24145658486382
47.00816171865989
38.09173557414783
30.09815725066842
29.527085515757562
28.260989866506208
27.52895699206762
27.168503788957906
27.22210729671032
27.5914754587385
28.224087052230658
29.324639593369596
31.16412433171392
34.06558487571
37.12784583197536
37.67755127484996
37.91775641970918
35.8320896772194
35.88490796055579
37.02588207636331
41.968036491727
42.95331763587001
42.928271561297116
43.35461368102266
43.49043199991839
43.47434001943
43.477979903659545
43.56228770326154
43.62432668378257
43.63895825706922
43.662414106941554
43.72998753665389
43.81373511220507
43.97827400923648
44.457423074174606
44.919017794836
45.27419029005522
44.42196251530488
39.67808824712444
29.696697148423297
31.04263655980968
30.33305634279135
30.02949496920283
29.870053172113742
29.87030815827562
29.70796377008935
29.09193424767821
28.569292153117118
29.073011407375986
31.32426663845547
35.764891334278715
38.01367384612238
38.32679609850219
38.47163702118616
38.43082399085899
37.51995447700208
37.36599399129072
40.568039044896466
41.03158425235353
41.49049623684806
42.07769191959312
42.296446046184506
43.483046331678814
44.261232737718565
44.28648693110521
44.28648693110521
44.31174481436606
44.33700637862413
44.36227161498817
44.412813068452415
44.56452463323209
44.7416847514861
44.37228649100236
40.60819364316243
43.53470370211684
29.394477435852522
32.14383104871368
32.667382334006135
33.48644196708824
34.044734944842034
34.142151140995566
32.94877099318657
30.24866638327441
27.857882482391602
27.348255453098474
29.43932545713703
33.75612559760005
38.3399875159396
39.02871571123241
39.101591992738854
37.67248558536603
36.46794913234851
34.034728379443294
37.28335588980476
39.12572341235796
40.48584870578414
42.07828131663906
43.92304943434426
45.336412490371686
45.04002602139191
44.745515404802745
44.717963828827806
44.79058235455903
44.9587448320932
45.33989511192744
46.047103979708474
47.29610325928881
47.23653188716433
46.44565865638092
43.318812465273986
38.36170391362993
48.58977415936479
29.793999173217628
32.972628462760525
34.80539842263188
37.53850337623151
39.94466286887597
40.369861225530954
36.607590207060504
31.227568015845506
27.233097994028
26.12423023077386
28.27349750936274
32.6390603151918
37.66483862118351
40.053339986238306
40.12687920914882
39.44992180295983
37.99539013178804
37.96366708360721
38.77545246861908
40.41005111101618
42.53251954186147
44.7686545696397
46.95262710080819
48.497139708193316
49.12708467332021
49.21253062130633
49.20249502391838
49.14608570743991
48.99574136867836
48.89189801612568
48.85921665199023
48.81519652654196
47.98740248020729
46.53658890216181
42.53535241863408
42.53974210960687
42.460589228994614
46.941720987478774
40.549525006947455
53.8583181788077
31.17242500299207
34.472778240357016
36.378327979996975
40.70761910696079
44.6404290261837
46.372549225129326
37.99869199667864
31.138158559638967
26.497312332156596
25.27439271668679
27.59193190606706
32.44351997671433
38.277115595363156
41.5077842225953
41.80563335033149
41.68144928853039
41.755946049448994
42.31610505778019
43.42751200973671
45.244729294007435
47.03376193653437
48.54862361896183
49.78661322700277
50.71766924196759
51.36525094107301
51.780054338679285
52.03942299000946
52.14319266751408
52.09130632435515
51.85785620588587
51.494850376088614
50.55600517847167
48.933511628040954
46.9128741150045
43.15365768748815
42.78934481367934
42.447369379792775
43.780743588477506
44.1965029145727
58.878585619624296
35.304924744917756
40.450471490556886
39.35056508205237
42.22479826148736
46.44565865638092
42.7839971085821
36.494593834265146
29.712436541484394
25.242196002690946
24.4982653114768
27.600514499917438
33.57843306443628
40.74554442644744
43.55564929026504
44.13501742941649
44.1602530403885
44.46336910354151
45.42660887759847
46.82903653482267
48.368467725048845
49.838286558640874
51.10613134238661
52.06536427592023
52.74007510000159
53.155459025407964
53.389151907373765
53.44108647807613
53.41511908205004
53.23335409474713
52.86987102495411
52.3767162289191
51.780054338679285
50.85278168203599
48.42736388661385
45.09835636742907
43.54631253197953
42.44470423182426
40.984830829735856
46.588562162114854
66.38990905666908
54.940548721592194
51.7643090493404
45.486848270263934
44.35734572441199
43.73734111200875
39.91186832274404
32.799758095766066
26.10914848719439
22.85729572105103
23.77407601659577
28.887404958712494
37.00612837564798
44.13501742941649
46.26697147918664
46.93137734822085
47.16180330750411
47.700286817368095
48.78040554179698
50.07089639896351
51.36525094107301
52.480521525892335
53.31125181631321
53.90852548630671
54.22015915953718
54.375971460817034
54.401939649365886
54.350003103674034
54.194190013077026
53.96046470840367
53.6228635666742
53.155459025407964
52.58433637382676
51.90972835946426
51.15794645246094
50.35536667368835
49.82826432100957
48.34646037578325
44.14501560856526
39.642459065406996
76.61994122309936
69.54165504939428
61.12209713512784
53.36348254832598
48.41093952506149
44.470387689370526
34.36062863996875
24.493327818149794
19.579027217950227
19.72795886488538
24.356886078046372
33.61994208493353
43.45509964826127
47.62329238191643
49.192866161862106
49.86412568408761
50.32949835942648
51.02841726770619
51.96160381063293
52.92179255441737
53.77867799299824
54.42790765873443
54.7498609527141
54.51882787501189
54.21298769614763
53.87178162108553
53.45602623120422
52.96822211337272
52.41684044766371
51.77296843731718
51.062224223476846
50.256990087325214
49.5027001469737
48.59607336846677
47.52438575793384
46.57730688272346
45.94569349898974
45.730264514811196
45.1802885414963
43.55741807529172
60.01165377000659
17.422133026459548
5.957392709213039
5.007039492464017
5.345956271471181
7.145760034679483
11.802201657393425
20.33182111083505
32.891692138069416
43.53050594066219
48.7546436949987
49.65942641027268
50.13831912921634
50.61369984296918
51.19984580442524
51.90013452619973
52.57396712583526
53.057300191456996
53.286337304911804
53.30012940482012
53.17833693976089
52.90249429176747
52.57084945913878
52.148363189494646
51.68678034815471
51.200071646889455
50.74098571492236
50.34475924648178
50.01287309804819
49.807726380368784
49.65874953002277
49.533222968864024
49.430754819739775
49.472477016589046
50.01528912603586
52.015157323696755
55.68483368822933
47.42099575236593
60.61954471913115
12.442485495291223
5.006296610030915
6.915538903731914
10.630119013099105
17.919270795033626
28.73260585204119
39.661912765713986
44.381714392300445
46.79160162098811
48.32005093497384
49.22105099578549
49.84012291024048
50.336056369556005
50.80598344365183
51.21247026426252
51.57133240889115
51.8195110694897
51.975533853858046
52.010435017501514
51.92881512534167
51.81754538151192
51.63130074313191
51.45850670928503
51.28162247055652
51.11057432258975
50.98406411020318
50.90049490711757
50.91119033207457
51.05797221382789
51.42798975269936
52.03187357492295
52.7254239024197
53.26255490716956
53.84636813383212
55.76362621843021
52.91481516570937
49.73540423182723
31.953213353928376
31.911426010675072
26.3996597683372
5.860966946143392
8.053832574107417
18.53754148841243
30.460101558201117
37.43493097058571
41.93602701817384
44.75624787456707
46.59472983590901
47.877416662789805
48.68529415831398
49.17169248516439
49.454508599318785
49.65135525647781
49.75425351498437
49.75426938309082
49.6682859030316
49.542833634758026
49.38073778073451
49.210263847580855
49.06741724854638
48.92940957330323
48.83013305569822
48.77880446908274
48.78902053701555
48.880530595727166
49.05392295879448
49.40451945300556
49.93736649334114
50.711083986378064
51.97336250620669
54.17746924732135
57.33255415996791
57.668869451895496
56.14390069092172
52.92926123700749
50.13683318439998
50.86403648081274
)
;

boundaryField
{
    ".*"
    {
        type            zeroGradient;
    }
}


// ************************************************************************* //
