/*--------------------------------*- C++ -*----------------------------------*\
  =========                 |
  \\      /  F ield         | OpenFOAM: The Open Source CFD Toolbox
   \\    /   O peration     | Website:  https://openfoam.org
    \\  /    A nd           | Version:  6
     \\/     M anipulation  |
\*---------------------------------------------------------------------------*/
FoamFile
{
    version     2.0;
    format      ascii;
    class       volScalarField;
    location    "360";
    object      nut;
}
// * * * * * * * * * * * * * * * * * * * * * * * * * * * * * * * * * * * * * //

dimensions      [0 2 -1 0 0 0 0];

internalField   nonuniform List<scalar> 
458
(
0.00109764
0.00119778
0.0012276
0.00128763
0.00134321
0.00139622
0.00144978
0.00150311
0.00154621
0.00157239
0.00157358
0.00154188
0.00146681
0.00129371
0.00100273
0.000495216
0.000581337
0.000663389
0.000696336
0.000686757
0.000641745
0.000592024
0.00054772
0.000509515
0.000476467
0.000447726
0.000422585
0.000400403
0.00038028
0.000361248
0.000342138
0.000329276
0.000301391
0.00146949
0.00337748
0.00314176
0.00360646
0.00407673
0.00455613
0.00497786
0.00531585
0.00565899
0.00597578
0.00622523
0.00636802
0.00636426
0.00608961
0.0048188
0.00132277
0.00110154
0.000895447
0.000488474
0.00118515
0.00175405
0.00219285
0.00232519
0.00167279
0.00140487
0.00122423
0.00109167
0.000990639
0.000910852
0.000844396
0.000781674
0.000718143
0.000660276
0.000612347
0.000736875
0.000386956
0.00177951
0.00454752
0.00381439
0.0046245
0.0049869
0.00524357
0.00544121
0.00563221
0.00588956
0.00620049
0.00653922
0.00686104
0.00710448
0.00714388
0.00668022
0.00543909
0.0040735
0.00107157
0.000744708
0.00131542
0.00195596
0.00259145
0.00276489
0.000866683
0.000755818
0.000663924
0.000589718
0.000529977
0.000481671
0.000442418
0.000410802
0.000386438
0.000429756
0.00050255
0.000864955
0.000452778
0.00207727
0.00577309
0.00373764
0.00479757
0.00499871
0.00499039
0.00498671
0.00508328
0.00529407
0.00560935
0.00601334
0.00644319
0.00680366
0.00698675
0.00690663
0.00652818
0.00556638
0.00303924
0.00122886
0.00154054
0.00214539
0.00291342
0.00359178
0.00363496
0.000982812
0.000898266
0.000839183
0.000794466
0.000756194
0.0007197
0.000684844
0.000648145
0.00060565
0.000567055
0.000561008
0.00102564
0.000518599
0.00238159
0.00740829
0.00392884
0.00457149
0.00484883
0.00469518
0.00458255
0.00466097
0.00487188
0.00520035
0.00564641
0.0061159
0.00645592
0.00660746
0.00658805
0.00645541
0.00606069
0.00500311
0.0044746
0.00454821
0.00485534
0.005214
0.00544545
0.00537406
0.00456662
0.00413846
0.00389154
0.00371009
0.00352763
0.00328011
0.0029176
0.00246529
0.00195944
0.00147909
0.00110775
0.00104822
0.000881514
0.000690847
0.000734964
0.000800081
0.00270801
0.00924687
0.00533346
0.0042832
0.00464155
0.00465362
0.00446524
0.00454787
0.00474834
0.0050781
0.00552724
0.00598521
0.00629809
0.0063728
0.00626788
0.00614744
0.00610062
0.00601062
0.00617392
0.00650153
0.0067479
0.00682368
0.0067128
0.00642826
0.00599186
0.00561716
0.00531143
0.00503458
0.00476016
0.00446751
0.0040916
0.00361279
0.00303477
0.0024043
0.00183958
0.00135015
0.00109711
0.000947776
0.00119067
0.000830572
0.00302536
0.0106134
0.00780131
0.00527319
0.00466919
0.00475436
0.00473089
0.00471863
0.00483235
0.00514072
0.00559743
0.00605527
0.00633178
0.00632303
0.00613641
0.00605787
0.00633912
0.00683957
0.00734243
0.00765843
0.00769612
0.00749089
0.00710914
0.00662032
0.0061016
0.00564719
0.00527162
0.00495007
0.00466372
0.00440765
0.0041776
0.00389418
0.00348094
0.00295656
0.00242871
0.00193649
0.00161048
0.00146986
0.00139595
0.000992679
0.00310181
0.00974324
0.00834703
0.007119
0.0062093
0.00576377
0.00525733
0.00495692
0.00499869
0.00533972
0.00583565
0.00628564
0.00649094
0.00637044
0.00616197
0.00632809
0.0070107
0.00752148
0.0078183
0.00785918
0.00761204
0.00713946
0.0065249
0.00586312
0.00526116
0.0047915
0.00444394
0.00418029
0.00397908
0.00383624
0.00375583
0.00372599
0.00360307
0.00330147
0.00301706
0.0028605
0.00292622
0.00308024
0.00363155
0.00153007
0.00303812
0.00365503
0.00403424
0.00424456
0.00428349
0.00423799
0.0042874
0.00455578
0.00505164
0.0056733
0.00625847
0.00662944
0.00664431
0.00632646
0.00636174
0.00675203
0.0071445
0.0073003
0.00725229
0.00698071
0.00648329
0.00581744
0.00509492
0.00444164
0.00394351
0.00360142
0.00336499
0.00318924
0.00304794
0.00292509
0.00280866
0.00268914
0.00258755
0.00250192
0.00244366
0.00240727
0.00234148
0.00221413
0.00206288
0.00142903
0.0012906
0.00228144
0.00319662
0.00398869
0.00476301
0.00555414
0.00622191
0.00670127
0.00690104
0.00676784
0.00640428
0.00601928
0.00608687
0.00625555
0.00623824
0.00604742
0.00569811
0.00519057
0.00457416
0.00393904
0.0033825
0.0029801
0.00272503
0.00257015
0.00247282
0.00240796
0.00236322
0.0023335
0.00231903
0.00232843
0.00234382
0.0023576
0.00235907
0.00232201
0.00220794
0.00200903
0.00176193
0.00115168
0.00201589
0.00409594
0.00543207
0.00635958
0.00707275
0.00714943
0.00691956
0.00663985
0.00597525
0.00517
0.00469948
0.00455433
0.00450836
0.00436647
0.00411622
0.00377478
0.0033527
0.00289362
0.00247419
0.00215769
0.00196006
0.00184809
0.00180203
0.00180039
0.00182872
0.00187849
0.0019434
0.00201645
0.00210249
0.00219728
0.00229703
0.00239423
0.00247301
0.00251325
0.0024765
0.00244537
0.00228242
0.00116745
0.00212933
0.00218488
0.00223465
0.00249102
0.00235495
0.00208998
0.00179439
0.00156445
0.00140257
0.00123568
0.00108147
0.000952445
0.000844969
0.000768882
0.000718053
0.000680613
0.000649792
0.000622848
0.00060049
0.000585469
0.000579932
0.000583803
0.0005955
0.000613385
0.000635534
0.000661293
0.000690547
0.000723492
0.000760691
0.000803288
0.000851131
0.000904209
0.000962873
0.00102748
0.0010981
0.00118304
0.0012172
0.00119078
0.00110825
0.00102514
)
;

boundaryField
{
    floor
    {
        type            nutkWallFunction;
        Cmu             0.09;
        kappa           0.41;
        E               9.8;
        value           nonuniform List<scalar> 
36
(
0.00012104
5.91043e-05
7.00127e-05
8.02225e-05
8.42784e-05
8.31016e-05
7.7545e-05
7.1352e-05
6.57801e-05
6.09307e-05
5.66995e-05
5.29899e-05
4.97204e-05
4.68151e-05
4.41618e-05
4.16358e-05
3.90819e-05
3.73525e-05
3.35723e-05
3.35722e-05
4.50428e-05
5.36424e-05
6.20858e-05
8.36021e-05
8.90026e-05
9.69047e-05
0.00012104
0.000158065
0.000132598
0.000108342
5.91042e-05
0.000108342
5.82406e-05
0.000129106
9.01912e-05
0.000147319
)
;
    }
    ceiling
    {
        type            nutkWallFunction;
        Cmu             0.09;
        kappa           0.41;
        E               9.8;
        value           nonuniform List<scalar> 
43
(
0.000247292
0.000253288
0.000258647
0.000286136
0.00027166
0.000243153
0.000210871
0.000185351
0.000167137
0.000148108
0.000130265
0.000115112
0.000102308
9.3129e-05
8.69378e-05
8.23441e-05
7.85397e-05
7.51961e-05
7.24083e-05
7.05282e-05
6.98338e-05
7.03192e-05
7.17841e-05
7.40172e-05
7.67719e-05
7.99611e-05
8.3565e-05
8.76018e-05
9.21338e-05
9.72913e-05
0.000103046
0.000109386
0.000116344
0.00012395
0.000132202
0.000142048
0.000145985
0.000142942
0.000133383
0.000123676
0.000344054
0.000407778
0.000234913
)
;
    }
    sWall
    {
        type            nutkWallFunction;
        Cmu             0.09;
        kappa           0.41;
        E               9.8;
        value           uniform 0.000247359;
    }
    nWall
    {
        type            nutkWallFunction;
        Cmu             0.09;
        kappa           0.41;
        E               9.8;
        value           nonuniform List<scalar> 6(9.69051e-05 0.000100579 0.000119864 0.000138434 0.000140258 0.000123683);
    }
    sideWalls
    {
        type            empty;
    }
    glass1
    {
        type            nutkWallFunction;
        Cmu             0.09;
        kappa           0.41;
        E               9.8;
        value           nonuniform List<scalar> 9(0.00013226 0.000174921 0.000209554 0.000242197 0.000275044 0.000309784 0.000343141 0.000351131 0.000344502);
    }
    glass2
    {
        type            nutkWallFunction;
        Cmu             0.09;
        kappa           0.41;
        E               9.8;
        value           nonuniform List<scalar> 2(0.000181592 0.000170209);
    }
    sun
    {
        type            nutkWallFunction;
        Cmu             0.09;
        kappa           0.41;
        E               9.8;
        value           nonuniform List<scalar> 
14
(
0.000132147
0.000143741
0.000147174
0.000154054
0.000160393
0.000166412
0.000172467
0.000178472
0.000183307
0.000186237
0.000186369
0.000182821
0.000174386
0.000154748
)
;
    }
    Table_master
    {
        type            nutkWallFunction;
        Cmu             0.09;
        kappa           0.41;
        E               9.8;
        value           nonuniform List<scalar> 9(0.000104908 9.15439e-05 8.02905e-05 7.10668e-05 6.35387e-05 5.7375e-05 5.231e-05 4.81894e-05 4.49865e-05);
    }
    Table_slave
    {
        type            nutkWallFunction;
        Cmu             0.09;
        kappa           0.41;
        E               9.8;
        value           nonuniform List<scalar> 9(0.000118695 0.000108678 0.000101613 9.62273e-05 9.15893e-05 8.71408e-05 8.2867e-05 7.83388e-05 7.30568e-05);
    }
    inlet
    {
        type            calculated;
        value           uniform 0.000167705;
    }
    outlet
    {
        type            calculated;
        value           nonuniform List<scalar> 2(0.00212933 0.00218488);
    }
}


// ************************************************************************* //
