/*--------------------------------*- C++ -*----------------------------------*\
  =========                 |
  \\      /  F ield         | OpenFOAM: The Open Source CFD Toolbox
   \\    /   O peration     | Website:  https://openfoam.org
    \\  /    A nd           | Version:  6
     \\/     M anipulation  |
\*---------------------------------------------------------------------------*/
FoamFile
{
    version     2.0;
    format      ascii;
    class       volScalarField;
    location    "360";
    object      T;
}
// * * * * * * * * * * * * * * * * * * * * * * * * * * * * * * * * * * * * * //

dimensions      [0 0 0 1 0 0 0];

internalField   nonuniform List<scalar> 
458
(
302.77
302.495
302.482
302.478
302.474
302.471
302.467
302.462
302.454
302.445
302.437
302.434
302.439
302.457
302.494
302.664
302.64
302.631
302.638
302.646
302.653
302.659
302.666
302.672
302.679
302.686
302.692
302.699
302.705
302.712
302.72
302.73
302.756
302.953
302.529
302.504
302.505
302.506
302.506
302.503
302.496
302.48
302.456
302.433
302.42
302.424
302.441
302.461
302.471
302.481
302.503
302.67
302.614
302.61
302.62
302.632
302.637
302.641
302.644
302.648
302.651
302.655
302.658
302.662
302.667
302.674
302.684
302.698
302.74
303.147
302.575
302.535
302.544
302.557
302.567
302.57
302.563
302.535
302.487
302.438
302.411
302.413
302.435
302.456
302.468
302.477
302.496
302.623
302.599
302.601
302.619
302.64
302.642
302.644
302.646
302.648
302.651
302.653
302.656
302.659
302.662
302.669
302.678
302.691
302.736
303.346
302.634
302.568
302.587
302.616
302.644
302.663
302.659
302.611
302.528
302.446
302.401
302.403
302.433
302.462
302.479
302.486
302.494
302.504
302.524
302.557
302.595
302.636
302.671
302.7
302.72
302.737
302.752
302.764
302.774
302.782
302.788
302.793
302.762
302.731
302.713
302.739
303.541
302.709
302.603
302.62
302.664
302.715
302.759
302.762
302.688
302.565
302.449
302.389
302.393
302.433
302.476
302.503
302.513
302.52
302.536
302.564
302.604
302.649
302.694
302.734
302.769
302.795
302.815
302.831
302.843
302.849
302.85
302.847
302.838
302.814
302.777
302.743
302.743
302.84
302.925
302.925
303.719
302.809
302.661
302.652
302.693
302.754
302.835
302.839
302.733
302.577
302.442
302.375
302.384
302.439
302.502
302.546
302.568
302.58
302.604
302.639
302.682
302.729
302.773
302.812
302.844
302.868
302.886
302.898
302.906
302.908
302.903
302.893
302.877
302.853
302.818
302.779
302.761
302.802
302.834
302.877
303.876
302.972
302.807
302.76
302.771
302.82
302.897
302.871
302.73
302.545
302.401
302.343
302.375
302.458
302.549
302.613
302.649
302.672
302.701
302.737
302.779
302.821
302.86
302.892
302.917
302.935
302.947
302.954
302.957
302.954
302.945
302.93
302.911
302.886
302.854
302.819
302.795
302.803
302.817
302.848
304.107
303.432
303.24
303.107
303.041
303.042
303.022
302.876
302.646
302.43
302.304
302.291
302.377
302.507
302.63
302.71
302.754
302.779
302.807
302.841
302.877
302.911
302.939
302.961
302.977
302.987
302.992
302.993
302.99
302.984
302.975
302.96
302.941
302.919
302.895
302.87
302.855
302.861
302.881
303.026
304.437
304.123
303.878
303.643
303.457
303.312
303.044
302.668
302.341
302.164
302.145
302.249
302.434
302.618
302.764
302.827
302.86
302.882
302.907
302.934
302.96
302.982
303
303.012
303.018
303.021
303.02
303.017
303.012
303.007
303.001
302.998
302.997
303
303.011
303.033
303.066
303.102
303.13
303.194
297.556
299.19
300.188
300.591
300.798
301.05
301.356
301.703
302.038
302.347
302.661
302.818
302.894
302.929
302.95
302.969
302.988
303.007
303.022
303.034
303.041
303.045
303.046
303.045
303.044
303.042
303.04
303.038
303.038
303.038
303.04
303.047
303.06
303.079
303.106
303.134
303.161
303.188
297.925
299.285
300.13
300.609
301.016
301.43
301.851
302.293
302.581
302.778
302.9
302.959
302.989
303.008
303.022
303.035
303.047
303.056
303.063
303.066
303.068
303.068
303.067
303.066
303.065
303.064
303.063
303.062
303.062
303.062
303.064
303.069
303.077
303.091
303.108
303.131
303.134
303.169
299.505
299.464
299.461
300.531
301.224
301.799
302.273
302.577
302.759
302.885
302.961
303.007
303.037
303.055
303.066
303.075
303.081
303.086
303.09
303.092
303.093
303.092
303.091
303.09
303.088
303.087
303.085
303.083
303.082
303.081
303.08
303.079
303.079
303.081
303.084
303.093
303.104
303.112
303.117
303.159
)
;

boundaryField
{
    floor
    {
        type            wallHeatTransfer;
        Tinf            uniform 305.2;
        alphaWall       uniform 0.24;
        value           nonuniform List<scalar> 
36
(
302.796
303.13
303.062
303.018
303.01
303.021
303.045
303.073
303.101
303.129
303.155
303.18
303.204
303.227
303.249
303.272
303.297
303.318
303.37
303.37
303.271
303.216
303.178
303.186
303.243
303.225
302.796
302.717
302.763
302.83
303.13
302.83
303.139
302.783
302.98
302.762
)
;
    }
    ceiling
    {
        type            wallHeatTransfer;
        Tinf            uniform 303.2;
        alphaWall       uniform 0.24;
        value           nonuniform List<scalar> 
43
(
299.731
299.689
299.682
300.675
301.336
301.887
302.339
302.626
302.797
302.915
302.986
303.03
303.058
303.075
303.085
303.093
303.099
303.104
303.108
303.11
303.11
303.11
303.109
303.107
303.106
303.104
303.102
303.1
303.098
303.096
303.095
303.094
303.093
303.094
303.096
303.103
303.113
303.121
303.126
303.164
304.379
304.086
298.261
)
;
    }
    sWall
    {
        type            wallHeatTransfer;
        Tinf            uniform 315.2;
        alphaWall       uniform 0.36;
        value           uniform 300.909;
    }
    nWall
    {
        type            wallHeatTransfer;
        Tinf            uniform 307.2;
        alphaWall       uniform 0.36;
        value           nonuniform List<scalar> 6(303.719 303.659 303.544 303.765 303.743 303.791);
    }
    sideWalls
    {
        type            empty;
    }
    glass1
    {
        type            wallHeatTransfer;
        Tinf            uniform 315.2;
        alphaWall       uniform 4.3;
        value           nonuniform List<scalar> 9(311.23 310.596 310.193 309.885 309.627 309.39 309.195 309.258 309.485);
    }
    glass2
    {
        type            wallHeatTransfer;
        Tinf            uniform 307.2;
        alphaWall       uniform 4.3;
        value           nonuniform List<scalar> 2(305.583 305.704);
    }
    sun
    {
        type            wallHeatTransfer;
        Tinf            uniform 305.2;
        alphaWall       uniform 0.24;
        value           nonuniform List<scalar> 
14
(
303.023
302.758
302.741
302.729
302.717
302.707
302.696
302.685
302.673
302.662
302.655
302.655
302.669
302.709
)
;
    }
    Table_master
    {
        type            zeroGradient;
    }
    Table_slave
    {
        type            zeroGradient;
    }
    inlet
    {
        type            fixedValue;
        value           uniform 295.15;
    }
    outlet
    {
        type            zeroGradient;
    }
}


// ************************************************************************* //
