/*--------------------------------*- C++ -*----------------------------------*\
  =========                 |
  \\      /  F ield         | OpenFOAM: The Open Source CFD Toolbox
   \\    /   O peration     | Website:  https://openfoam.org
    \\  /    A nd           | Version:  6
     \\/     M anipulation  |
\*---------------------------------------------------------------------------*/
FoamFile
{
    version     2.0;
    format      ascii;
    class       volScalarField;
    location    "260";
    object      epsilon;
}
// * * * * * * * * * * * * * * * * * * * * * * * * * * * * * * * * * * * * * //

dimensions      [0 2 -3 0 0 0 0];

internalField   nonuniform List<scalar> 
458
(
0.000516234
0.000677563
0.000736275
0.000853089
0.000972546
0.00109774
0.00123674
0.00138154
0.00150396
0.00157722
0.00157205
0.00146788
0.00125434
0.000765963
0.000394956
4.87574e-05
7.95886e-05
0.000121196
0.000143251
0.000138145
0.000112303
8.78282e-05
6.93324e-05
5.56854e-05
4.54714e-05
3.77029e-05
3.16813e-05
2.69524e-05
2.31036e-05
1.98233e-05
1.68498e-05
1.47569e-05
1.11573e-05
0.00120377
0.00170672
0.000630196
0.000619404
0.000645848
0.0006953
0.000776934
0.000888749
0.00100452
0.00108788
0.00110434
0.00103994
0.000910597
0.000713547
0.000564098
0.000897087
0.000530642
0.000283346
4.59079e-05
9.03727e-05
0.000119479
0.00012457
0.000122054
0.000123995
9.64658e-05
7.24592e-05
5.48004e-05
4.20529e-05
3.28203e-05
2.60376e-05
2.1003e-05
1.7235e-05
1.4819e-05
1.3678e-05
2.95109e-05
2.1341e-05
0.00210378
0.00395859
0.000713481
0.000560264
0.000579114
0.000642995
0.000748354
0.00089047
0.00103243
0.00113038
0.00115589
0.00110061
0.000975748
0.000793227
0.000623464
0.00050964
0.000441465
0.00050492
0.000157111
0.000168724
0.000162297
0.000150482
0.000144108
0.000280227
0.00018297
0.000122246
8.45657e-05
6.0677e-05
4.50869e-05
3.46067e-05
2.75055e-05
2.28241e-05
1.75877e-05
1.51814e-05
5.682e-05
3.25613e-05
0.00330557
0.00807444
0.00103722
0.000534741
0.000533748
0.000613881
0.000755969
0.00095172
0.00112108
0.00122414
0.00124875
0.00118872
0.00104153
0.000853562
0.000670384
0.000533618
0.000453663
0.000463193
0.000749435
0.000474804
0.000320346
0.000241092
0.000195684
0.000176156
0.000415582
0.000313327
0.000251463
0.000209511
0.000177152
0.000150688
0.000127776
0.000106342
8.4895e-05
4.97071e-05
3.04696e-05
9.85496e-05
4.73893e-05
0.00493628
0.0144601
0.00195964
0.000581743
0.000502436
0.000599656
0.000839497
0.00113443
0.001321
0.00141298
0.00141964
0.00132854
0.00114535
0.000910473
0.000686721
0.000521258
0.000419939
0.000384946
0.000395739
0.000340332
0.000289794
0.000248866
0.000211908
0.00017896
0.000166486
0.000150216
0.000137201
0.000125466
0.000113512
0.000101222
8.8772e-05
7.65764e-05
6.50134e-05
5.06362e-05
3.76214e-05
6.83611e-05
9.745e-05
0.000109706
0.000135482
0.000175812
0.00720959
0.0217553
0.00442669
0.00100558
0.000629747
0.000680796
0.00118664
0.00153295
0.00167676
0.00172142
0.00168576
0.00154605
0.00129582
0.000982956
0.000692474
0.000484134
0.000367764
0.000326958
0.000323135
0.000314229
0.000293406
0.0002607
0.000221254
0.000182148
0.000153842
0.000138126
0.000129515
0.000122419
0.000114211
0.000103723
9.09277e-05
7.76145e-05
6.52363e-05
5.3775e-05
4.55181e-05
5.39825e-05
8.05036e-05
9.80064e-05
0.00019608
0.000197162
0.00995584
0.0262487
0.00935372
0.00337014
0.00197222
0.00174243
0.00215926
0.0022689
0.00224709
0.00218434
0.00206569
0.00183634
0.00148253
0.00106432
0.00069303
0.000443825
0.000322705
0.000295416
0.000304595
0.000306061
0.000285824
0.000250014
0.000208872
0.000171709
0.000146858
0.000136028
0.000133104
0.000132582
0.00013194
0.00012953
0.000122102
0.000110532
9.87196e-05
8.82932e-05
8.35472e-05
9.1233e-05
0.000121222
0.000176422
0.00032212
0.000343064
0.0106845
0.0292678
0.0160464
0.0100378
0.00673932
0.00517816
0.00411369
0.00344766
0.00306081
0.0028103
0.00255316
0.00217639
0.00166574
0.00110457
0.000646012
0.000376875
0.000278879
0.000270124
0.00027792
0.000270884
0.000244861
0.000209394
0.000175528
0.000150372
0.000137364
0.000135347
0.000140411
0.000150006
0.000163564
0.000181171
0.000202314
0.000221141
0.000238245
0.000269285
0.000327533
0.000477351
0.000807609
0.00134429
0.00391086
0.00123794
0.0100085
0.0172834
0.0131954
0.00997106
0.00761345
0.00597836
0.00488023
0.00422432
0.00383062
0.00350231
0.00307901
0.00246023
0.00170405
0.000948704
0.000463196
0.000287545
0.00023581
0.000225714
0.000219443
0.000203594
0.000180182
0.000155343
0.000135292
0.000123763
0.000121386
0.00012678
0.000138398
0.000156016
0.000180764
0.000214747
0.000260832
0.000322789
0.000407452
0.000528063
0.000700069
0.000926544
0.00118211
0.00141536
0.00161267
0.00100914
0.00314704
0.00435207
0.00502287
0.00532017
0.0053805
0.00520509
0.00477223
0.00410666
0.0032346
0.00210116
0.00101859
0.000487225
0.000272408
0.000198739
0.000171365
0.000157614
0.000143886
0.000127172
0.000110371
9.72399e-05
8.95935e-05
8.76116e-05
9.07693e-05
9.84474e-05
0.000110377
0.000127
0.000149458
0.000179685
0.000220942
0.00027835
0.000357032
0.000463145
0.000598762
0.000749375
0.000872863
0.000915807
0.00085747
0.000536279
0.00294279
0.00989396
0.0100458
0.00889809
0.00753383
0.00583463
0.00405263
0.00260162
0.00149195
0.000773698
0.000393984
0.000230895
0.000159444
0.000127013
0.000108475
9.43472e-05
8.15587e-05
7.04473e-05
6.2518e-05
5.86808e-05
5.88329e-05
6.24447e-05
6.90695e-05
7.85684e-05
9.12721e-05
0.000107955
0.0001299
0.000159083
0.000198192
0.000250898
0.000322186
0.000416958
0.000535723
0.000669267
0.000770685
0.000871308
0.000741392
0.000560974
0.00353236
0.00384051
0.00412768
0.00577353
0.00490592
0.0034798
0.00233686
0.00166024
0.00121941
0.000854427
0.000586728
0.000397231
0.000283216
0.000218896
0.00018001
0.000152604
0.000130163
0.000110327
9.32782e-05
8.03301e-05
7.24019e-05
6.93417e-05
7.03285e-05
7.45703e-05
8.16521e-05
9.157e-05
0.000104317
0.000120413
0.000140808
0.000167062
0.000200113
0.00024166
0.000294008
0.000360042
0.000442788
0.000558031
0.000603311
0.000561667
0.000454828
0.000361012
)
;

boundaryField
{
    floor
    {
        Cmu             0.09;
        kappa           0.41;
        E               9.8;
        type            epsilonWallFunction;
        value           nonuniform List<scalar> 
36
(
0.000394956
4.87574e-05
7.95886e-05
0.000121196
0.000143251
0.000138145
0.000112303
8.78282e-05
6.93324e-05
5.56854e-05
4.54714e-05
3.77029e-05
3.16813e-05
2.69524e-05
2.31036e-05
1.98233e-05
1.68498e-05
1.47569e-05
1.11573e-05
1.11573e-05
2.1341e-05
3.25613e-05
4.73893e-05
0.000109706
0.000135482
0.000175812
0.000394956
0.000897087
0.000530642
0.000283346
4.87574e-05
0.000283346
4.59079e-05
0.00050492
0.000157111
0.000749435
)
;
    }
    ceiling
    {
        Cmu             0.09;
        kappa           0.41;
        E               9.8;
        type            epsilonWallFunction;
        value           nonuniform List<scalar> 
43
(
0.00353236
0.00384051
0.00412768
0.00577353
0.00490592
0.0034798
0.00233686
0.00166024
0.00121941
0.000854427
0.000586728
0.000397231
0.000283216
0.000218896
0.00018001
0.000152604
0.000130163
0.000110327
9.32782e-05
8.03301e-05
7.24019e-05
6.93417e-05
7.03285e-05
7.45703e-05
8.16521e-05
9.157e-05
0.000104317
0.000120413
0.000140808
0.000167062
0.000200113
0.00024166
0.000294008
0.000360042
0.000442788
0.000558031
0.000603311
0.000561667
0.000454828
0.000361012
0.0100085
0.0172834
0.00294279
)
;
    }
    sWall
    {
        Cmu             0.09;
        kappa           0.41;
        E               9.8;
        type            epsilonWallFunction;
        value           uniform 0.00353236;
    }
    nWall
    {
        Cmu             0.09;
        kappa           0.41;
        E               9.8;
        type            epsilonWallFunction;
        value           nonuniform List<scalar> 6(0.000175812 0.000197162 0.000343064 0.000536279 0.000560974 0.000361012);
    }
    sideWalls
    {
        type            empty;
    }
    glass1
    {
        Cmu             0.09;
        kappa           0.41;
        E               9.8;
        type            epsilonWallFunction;
        value           nonuniform List<scalar> 9(0.000516234 0.00120377 0.00210378 0.00330557 0.00493628 0.00720959 0.00995584 0.0106845 0.0100085);
    }
    glass2
    {
        Cmu             0.09;
        kappa           0.41;
        E               9.8;
        type            epsilonWallFunction;
        value           nonuniform List<scalar> 2(0.00123794 0.00100914);
    }
    sun
    {
        Cmu             0.09;
        kappa           0.41;
        E               9.8;
        type            epsilonWallFunction;
        value           nonuniform List<scalar> 
14
(
0.000516234
0.000677563
0.000736275
0.000853089
0.000972546
0.00109774
0.00123674
0.00138154
0.00150396
0.00157722
0.00157205
0.00146788
0.00125434
0.000765963
)
;
    }
    Table_master
    {
        Cmu             0.09;
        kappa           0.41;
        E               9.8;
        type            epsilonWallFunction;
        value           nonuniform List<scalar> 9(0.000280227 0.00018297 0.000122246 8.45657e-05 6.0677e-05 4.50869e-05 3.46067e-05 2.75055e-05 2.28241e-05);
    }
    Table_slave
    {
        Cmu             0.09;
        kappa           0.41;
        E               9.8;
        type            epsilonWallFunction;
        value           nonuniform List<scalar> 9(0.000415582 0.000313327 0.000251463 0.000209511 0.000177152 0.000150688 0.000127776 0.000106342 8.4895e-05);
    }
    inlet
    {
        type            turbulentMixingLengthDissipationRateInlet;
        mixingLength    0.01;
        phi             phi;
        k               k;
        value           uniform 0.000471672;
    }
    outlet
    {
        type            zeroGradient;
    }
}


// ************************************************************************* //
