/*--------------------------------*- C++ -*----------------------------------*\
  =========                 |
  \\      /  F ield         | OpenFOAM: The Open Source CFD Toolbox
   \\    /   O peration     | Website:  https://openfoam.org
    \\  /    A nd           | Version:  6
     \\/     M anipulation  |
\*---------------------------------------------------------------------------*/
FoamFile
{
    version     2.0;
    format      ascii;
    class       volScalarField;
    location    "260";
    object      T;
}
// * * * * * * * * * * * * * * * * * * * * * * * * * * * * * * * * * * * * * //

dimensions      [0 0 0 1 0 0 0];

internalField   nonuniform List<scalar> 
458
(
302.808
302.536
302.523
302.519
302.515
302.511
302.506
302.5
302.492
302.482
302.474
302.472
302.48
302.505
302.536
302.748
302.722
302.711
302.72
302.73
302.739
302.747
302.756
302.764
302.773
302.781
302.79
302.798
302.807
302.816
302.827
302.84
302.869
302.987
302.572
302.547
302.548
302.549
302.548
302.545
302.536
302.516
302.49
302.466
302.457
302.466
302.487
302.507
302.517
302.528
302.55
302.755
302.691
302.686
302.698
302.714
302.721
302.728
302.734
302.74
302.746
302.752
302.758
302.764
302.772
302.782
302.794
302.812
302.856
303.178
302.619
302.58
302.59
302.603
302.613
302.615
302.604
302.568
302.514
302.466
302.446
302.456
302.483
302.503
302.515
302.524
302.543
302.699
302.67
302.673
302.696
302.723
302.726
302.73
302.735
302.74
302.745
302.751
302.757
302.763
302.769
302.78
302.791
302.809
302.853
303.374
302.679
302.615
302.635
302.666
302.695
302.712
302.7
302.639
302.547
302.466
302.433
302.448
302.482
302.511
302.528
302.535
302.543
302.554
302.578
302.617
302.665
302.715
302.759
302.794
302.821
302.843
302.862
302.878
302.892
302.904
302.915
302.923
302.888
302.853
302.834
302.859
303.568
302.756
302.653
302.671
302.717
302.771
302.814
302.801
302.708
302.574
302.461
302.42
302.439
302.486
302.531
302.557
302.566
302.574
302.593
302.627
302.674
302.729
302.784
302.834
302.878
302.911
302.937
302.959
302.975
302.984
302.988
302.987
302.978
302.951
302.908
302.869
302.867
302.976
303.07
303.068
303.745
302.857
302.714
302.707
302.751
302.817
302.897
302.87
302.74
302.575
302.449
302.403
302.432
302.5
302.566
302.609
302.629
302.644
302.673
302.716
302.769
302.826
302.881
302.929
302.969
303
303.024
303.041
303.053
303.056
303.053
303.043
303.027
302.999
302.957
302.912
302.891
302.937
302.973
303.018
303.904
303.021
302.863
302.824
302.841
302.897
302.961
302.894
302.722
302.531
302.401
302.373
302.431
302.532
302.628
302.692
302.729
302.754
302.789
302.835
302.886
302.939
302.986
303.027
303.059
303.083
303.1
303.111
303.116
303.115
303.105
303.089
303.068
303.04
303.003
302.961
302.933
302.941
302.957
302.989
304.134
303.475
303.292
303.173
303.119
303.134
303.065
302.865
302.609
302.399
302.303
302.333
302.452
302.603
302.73
302.811
302.856
302.883
302.919
302.964
303.008
303.049
303.085
303.114
303.134
303.148
303.156
303.159
303.158
303.152
303.141
303.125
303.104
303.078
303.05
303.02
303.002
303.007
303.026
303.163
304.463
304.154
303.914
303.689
303.508
303.344
302.982
302.565
302.254
302.123
302.162
302.328
302.545
302.75
302.886
302.95
302.983
303.011
303.044
303.08
303.113
303.141
303.163
303.179
303.188
303.192
303.192
303.188
303.182
303.174
303.166
303.16
303.156
303.156
303.164
303.183
303.213
303.247
303.273
303.336
297.436
298.943
299.839
300.17
300.476
300.86
301.302
301.74
302.143
302.526
302.822
302.966
303.037
303.071
303.097
303.121
303.148
303.173
303.193
303.208
303.217
303.222
303.223
303.221
303.217
303.213
303.208
303.204
303.201
303.199
303.199
303.203
303.214
303.231
303.257
303.287
303.318
303.353
297.822
299.09
299.946
300.505
301.047
301.561
302.085
302.468
302.753
302.946
303.058
303.115
303.148
303.171
303.19
303.208
303.224
303.238
303.247
303.251
303.252
303.251
303.248
303.245
303.241
303.237
303.234
303.23
303.227
303.225
303.225
303.228
303.234
303.246
303.263
303.287
303.295
303.333
299.554
299.514
299.511
300.634
301.399
302.021
302.482
302.761
302.934
303.05
303.126
303.177
303.209
303.229
303.243
303.254
303.263
303.27
303.275
303.278
303.279
303.278
303.275
303.272
303.269
303.265
303.262
303.258
303.255
303.251
303.248
303.246
303.244
303.244
303.246
303.252
303.262
303.272
303.279
303.324
)
;

boundaryField
{
    floor
    {
        type            wallHeatTransfer;
        Tinf            uniform 305.2;
        alphaWall       uniform 0.24;
        value           nonuniform List<scalar> 
36
(
302.825
303.187
303.118
303.072
303.065
303.077
303.102
303.131
303.16
303.187
303.214
303.239
303.264
303.287
303.311
303.334
303.36
303.385
303.439
303.439
303.357
303.312
303.28
303.307
303.371
303.351
302.825
302.753
302.797
302.863
303.187
302.863
303.198
302.814
303.04
302.799
)
;
    }
    ceiling
    {
        type            wallHeatTransfer;
        Tinf            uniform 303.2;
        alphaWall       uniform 0.24;
        value           nonuniform List<scalar> 
43
(
299.776
299.733
299.726
300.771
301.5
302.093
302.532
302.794
302.956
303.064
303.133
303.18
303.208
303.225
303.238
303.247
303.254
303.26
303.264
303.266
303.266
303.265
303.263
303.261
303.258
303.255
303.252
303.25
303.247
303.244
303.242
303.24
303.239
303.239
303.241
303.247
303.256
303.265
303.271
303.311
304.405
304.116
298.163
)
;
    }
    sWall
    {
        type            wallHeatTransfer;
        Tinf            uniform 315.2;
        alphaWall       uniform 0.36;
        value           uniform 300.942;
    }
    nWall
    {
        type            wallHeatTransfer;
        Tinf            uniform 307.2;
        alphaWall       uniform 0.36;
        value           nonuniform List<scalar> 6(303.841 303.78 303.664 303.907 303.884 303.938);
    }
    sideWalls
    {
        type            empty;
    }
    glass1
    {
        type            wallHeatTransfer;
        Tinf            uniform 315.2;
        alphaWall       uniform 4.3;
        value           nonuniform List<scalar> 9(311.167 310.551 310.16 309.862 309.613 309.382 309.197 309.263 309.492);
    }
    glass2
    {
        type            wallHeatTransfer;
        Tinf            uniform 307.2;
        alphaWall       uniform 4.3;
        value           nonuniform List<scalar> 2(305.643 305.763);
    }
    sun
    {
        type            wallHeatTransfer;
        Tinf            uniform 305.2;
        alphaWall       uniform 0.24;
        value           nonuniform List<scalar> 
14
(
303.051
302.789
302.771
302.758
302.746
302.735
302.724
302.713
302.7
302.689
302.681
302.684
302.699
302.752
)
;
    }
    Table_master
    {
        type            zeroGradient;
    }
    Table_slave
    {
        type            zeroGradient;
    }
    inlet
    {
        type            fixedValue;
        value           uniform 295.15;
    }
    outlet
    {
        type            zeroGradient;
    }
}


// ************************************************************************* //
