/*--------------------------------*- C++ -*----------------------------------*\
  =========                 |
  \\      /  F ield         | OpenFOAM: The Open Source CFD Toolbox
   \\    /   O peration     | Website:  https://openfoam.org
    \\  /    A nd           | Version:  6
     \\/     M anipulation  |
\*---------------------------------------------------------------------------*/
FoamFile
{
    version     2.0;
    format      ascii;
    class       surfaceScalarField;
    location    "2160";
    object      phi;
}
// * * * * * * * * * * * * * * * * * * * * * * * * * * * * * * * * * * * * * //

dimensions      [1 0 -1 0 0 0 0];

internalField   nonuniform List<scalar> 
850
(
-0.0030531
0.00311356
-0.00414578
0.00109268
-0.00501486
0.000869078
-0.0057037
0.000688846
-0.00617578
0.000472078
-0.00639703
0.000221254
-0.00632784
-6.91931e-05
-0.00592405
-0.00040379
-0.00517385
-0.000750204
-0.00412873
-0.00104511
-0.00290047
-0.00122826
-0.00164169
-0.00125878
-0.000539185
-0.00110251
0.000135817
-0.000675002
0.000138168
-0.000922431
0.000926088
-0.000690042
-0.000232389
-6.08006e-05
-0.000629242
0.000542639
-0.00060344
0.00100182
-0.000459177
0.00125839
-0.000256572
0.00136651
-0.000108119
0.00141933
-5.28195e-05
0.00144969
-3.03597e-05
0.00146475
-1.50634e-05
0.00146836
-3.60721e-06
0.00146136
6.99331e-06
0.00143811
2.32502e-05
0.00137959
5.85202e-05
0.00125368
0.000125919
0.00105009
0.000203583
0.000793447
0.000256645
0.000798287
-0.00220745
0.00548441
-0.0032951
0.00218032
-0.0042083
0.00178228
-0.00490605
0.0013866
-0.00538756
0.000953582
-0.0056305
0.000464195
-0.00559448
-0.000105208
-0.00524031
-0.000757962
-0.00456684
-0.00142368
-0.00364283
-0.00196912
-0.00258817
-0.00228292
-0.00154165
-0.0023053
-0.000628799
-0.00201536
9.28153e-05
-0.00139662
0.000872651
-0.000641667
0.00114856
-0.000272129
0.00095683
0.000196093
0.000969518
4.15263e-05
0.000895562
0.000421792
-0.000612654
0.000786672
-0.000994123
0.00109964
-0.000916409
0.00135049
-0.000710024
0.00140695
-0.000313037
0.00141509
-0.000116256
0.00142581
-6.35427e-05
0.0014348
-3.93491e-05
0.00144007
-2.03305e-05
0.00144224
-5.77801e-06
0.00144185
7.38821e-06
0.00143637
2.87276e-05
0.00139991
9.49773e-05
0.00124703
0.000278798
0.000978567
0.000472047
0.000644619
0.000590593
0.00145528
-0.00156233
0.00729717
-0.00251035
0.00312834
-0.00334298
0.0026149
-0.00396554
0.00200916
-0.0044131
0.00140115
-0.00466162
0.000712716
-0.00465597
-0.000110862
-0.0043347
-0.00107923
-0.00371319
-0.00204519
-0.00288879
-0.00279352
-0.0019867
-0.00318501
-0.00112277
-0.00316924
-0.000373557
-0.00276457
0.000240442
-0.00201061
0.000751953
-0.00115318
0.000899336
-0.000419512
0.00070748
0.000387949
0.00168826
0.00143728
-0.000527878
0.00163279
-0.000808166
0.00157519
-0.00093652
0.00160847
-0.000949696
0.00181173
-0.000913286
0.00149885
0.00138275
0.00131936
0.00128017
0.00125999
0.00125436
0.00126191
0.00129079
0.00138592
0.00115889
0.000505828
0.000870004
0.000760932
0.000498894
0.000961704
0.00197275
-0.00109548
0.0087173
-0.00185228
0.00388515
-0.0024366
0.00319922
-0.00288268
0.00245523
-0.0032278
0.00174627
-0.00344067
0.000925578
-0.00344208
-0.000109449
-0.00312368
-0.00139762
-0.00254783
-0.00262104
-0.00184613
-0.00349522
-0.00113049
-0.00390065
-0.000480767
-0.00381896
6.57131e-05
-0.00331105
0.000526306
-0.00247121
0.000902409
-0.00152928
0.0011195
-0.000636607
0.00130371
0.000203743
0.0022575
0.000734474
0.00216774
0.000101693
0.00199497
-0.000355102
0.00190901
-0.000722208
0.00179821
-0.000825723
0.00166601
-0.000817497
0.00143506
-0.000682331
0.00175866
-0.000323758
0.00193632
-0.000177816
0.00206725
-0.00013108
0.00216803
-0.000100933
0.00222825
-6.03701e-05
0.00222568
2.4116e-06
0.00213278
9.2748e-05
0.00191322
0.000219408
0.00150706
0.000406004
0.00126968
0.000743211
0.000902425
0.00112819
0.000384093
0.00148004
0.00238048
-0.000756055
0.00986108
-0.00132707
0.00445616
-0.00150965
0.0033818
-0.00168825
0.00263383
-0.00185323
0.00191126
-0.00196226
0.0010346
-0.0019138
-0.000157907
-0.00155679
-0.00175464
-0.00105577
-0.00312206
-0.000537855
-0.00401313
-7.33585e-05
-0.00436515
0.000305298
-0.00419761
0.000596472
-0.00360222
0.000849352
-0.00272409
0.0010687
-0.00174863
0.00127611
-0.000844024
0.00158681
-0.000106952
0.0020304
0.000290887
0.00206428
6.78053e-05
0.00199698
-0.000287797
0.00181249
-0.000537714
0.00162461
-0.000637851
0.00144752
-0.000640403
0.00131883
-0.000553645
0.00137759
-0.000382512
0.00146565
-0.000265876
0.00155011
-0.000215547
0.0016316
-0.000182418
0.00170173
-0.000130504
0.00174076
-3.66124e-05
0.00172468
0.000108821
0.00163842
0.000305674
0.00148618
0.000558243
0.0013301
0.000899294
0.00115112
0.00130716
0.000804091
0.00182706
0.00101982
0.00216475
-0.00109518
0.00213612
-0.00179344
0.000717876
-0.00172067
-0.000638757
0.0109406
-0.00101441
0.00483182
-0.000633467
0.00300086
-0.00044874
0.00244911
-0.000384134
0.00184665
-0.000303792
0.000954262
-5.20116e-05
-0.000409687
0.000334404
-0.00214106
0.000692107
-0.00347976
0.00095198
-0.004273
0.00109502
-0.00450819
0.00114536
-0.00424795
0.00113926
-0.00359613
0.00111608
-0.0027009
0.00110061
-0.00173316
0.00113278
-0.000876191
0.00126985
-0.000244021
0.00148463
7.61025e-05
0.0015359
1.65366e-05
0.00143793
-0.000189826
0.00126355
-0.000363335
0.00108389
-0.000458188
0.000926583
-0.0004831
0.000821555
-0.000448617
0.000810754
-0.000371711
0.0008601
-0.000315222
0.000936265
-0.000291712
0.00102701
-0.000273164
0.00112584
-0.000229335
0.00122284
-0.000133612
0.00129575
3.59125e-05
0.00133281
0.000268616
0.00134811
0.000542945
0.00138212
0.000865277
0.00148258
0.00120671
0.00168606
0.00162358
0.00203681
0.001814
0.00233694
0.00183599
0.00182998
0.00122484
0.000174748
-0.000763857
0.0121918
-0.000621489
0.00468945
0.000492243
0.00188713
0.00096057
0.00198078
0.0012179
0.00158932
0.00159938
0.000572786
0.00210266
-0.000912967
0.00243986
-0.00247825
0.00257369
-0.0036136
0.00250618
-0.00420549
0.00227299
-0.004275
0.00193605
-0.00391101
0.00155913
-0.00321921
0.00120038
-0.00234215
0.000896651
-0.00142943
0.000705106
-0.000684645
0.000653504
-0.00019242
0.000704659
2.49474e-05
0.00071274
8.45621e-06
0.000636479
-0.000113565
0.000509154
-0.00023601
0.000368856
-0.00031789
0.000242955
-0.000357199
0.000156844
-0.000362506
0.000133885
-0.000348751
0.000162895
-0.000344232
0.000222526
-0.000351343
0.000302987
-0.000353624
0.000405275
-0.000331624
0.000534365
-0.000262702
0.000687265
-0.000116988
0.000845196
0.000110686
0.0010072
0.000380946
0.00120904
0.00066343
0.00148364
0.00093211
0.00188402
0.0012232
0.00241743
0.0012806
0.00318505
0.00106837
0.00336163
0.00104825
0.0036052
0.00273593
0.00999916
0.00339169
0.00403369
0.00344932
0.0018295
0.00353497
0.00189513
0.00374621
0.00137808
0.00422211
9.68884e-05
0.00469326
-0.00138412
0.00478832
-0.00257331
0.00451403
-0.00333931
0.00396093
-0.00365239
0.0032298
-0.00354388
0.00242483
-0.00310604
0.00162801
-0.00242238
0.000922091
-0.00163624
0.000347409
-0.000854743
-2.49886e-06
-0.000334738
-0.000140833
-5.40851e-05
-0.000155281
3.93946e-05
-0.000163143
1.63187e-05
-0.000215277
-6.14313e-05
-0.000306096
-0.00014519
-0.000412324
-0.000211663
-0.000511636
-0.000257887
-0.000585898
-0.000288244
-0.00062389
-0.000310759
-0.0006331
-0.000335022
-0.00062527
-0.000359174
-0.0006047
-0.000374194
-0.000566416
-0.000369908
-0.000494191
-0.000334927
-0.000356722
-0.000254457
-0.000146593
-9.94428e-05
0.000104171
0.000130181
0.000388866
0.000378735
0.000707309
0.000613667
0.00108958
0.000840925
0.00150688
0.000863297
0.00189863
0.000676623
0.00120603
0.00174085
0.00509763
0.0105981
0.0146276
0.0125614
0.00389568
0.0112292
0.00322734
0.0103407
0.00226658
0.00953387
0.000903719
0.00853146
-0.000381713
0.00735256
-0.00139441
0.00607931
-0.00206606
0.00476052
-0.0023336
0.00342935
-0.00221271
0.00216433
-0.00184101
0.0010095
-0.00126755
5.6437e-05
-0.000683181
-0.00056601
-0.000232296
-0.000859627
-4.1121e-05
-0.000956788
4.30762e-05
-0.000976471
5.90773e-05
-0.000991873
3.17204e-05
-0.00103531
-1.79942e-05
-0.00110789
-7.2609e-05
-0.00119692
-0.000122634
-0.00128872
-0.000166085
-0.00137434
-0.000202625
-0.00145153
-0.00023357
-0.00152707
-0.000259484
-0.00161022
-0.000276016
-0.00170954
-0.000274879
-0.00183467
-0.000244775
-0.00199852
-0.000171076
-0.00221652
-3.64647e-05
-0.00248301
0.000167048
-0.00280697
0.000454146
-0.00327094
0.000842703
-0.00398814
0.00133087
-0.00502968
0.00188246
-0.00651689
0.0023505
-0.00825534
0.00241507
-0.00777179
0.00125731
-0.00235715
0.00895045
0.0056036
0.00747188
0.00470591
0.00708001
0.00265845
0.00672919
0.00125455
0.00611921
0.000228258
0.00524682
-0.000522017
0.00417824
-0.000997477
0.00298287
-0.00113823
0.00169131
-0.000921154
0.000430449
-0.000580148
-0.000609431
-0.000227668
-0.00127066
-2.19487e-05
-0.00156317
6.0215e-05
-0.00167788
7.35825e-05
-0.00170787
7.30676e-05
-0.00171365
6.48585e-05
-0.00172868
4.67475e-05
-0.00176749
2.08196e-05
-0.00183142
-8.6842e-06
-0.00191296
-4.10857e-05
-0.00200447
-7.45814e-05
-0.00210377
-0.00010332
-0.00221222
-0.000125121
-0.00233325
-0.000138461
-0.00246898
-0.000140286
-0.00261828
-0.000125572
-0.00277575
-8.73134e-05
-0.00292901
-1.78073e-05
-0.00306256
9.7081e-05
-0.00317483
0.000279317
-0.00327577
0.000555084
-0.00337727
0.000944207
-0.00348609
0.00143969
-0.0035696
0.00196597
-0.00356798
0.00234889
-0.00331003
0.00215712
-0.00195003
-0.000102686
-0.00422386
-0.000826095
0.00648301
0.000742132
0.00313769
0.00140786
0.00199272
0.00164679
0.00101562
0.00158298
0.000292074
0.00121198
-0.000151022
0.000529788
-0.000315282
-0.000363631
-0.000244814
-0.00124095
-4.38367e-05
-0.00188625
6.51542e-05
-0.002227
0.000113084
-0.00235799
0.000109037
-0.00238111
8.33349e-05
-0.0023709
6.33707e-05
-0.00234984
5.20157e-05
-0.0023293
4.43102e-05
-0.00231832
3.57744e-05
-0.00232222
2.47152e-05
-0.0023416
1.0699e-05
-0.00237545
-7.23464e-06
-0.00242404
-2.59908e-05
-0.00248539
-4.19717e-05
-0.00255741
-5.31062e-05
-0.00263757
-5.83011e-05
-0.00272181
-5.60447e-05
-0.00280355
-4.38316e-05
-0.00287332
-1.75435e-05
-0.00291856
2.74372e-05
-0.00291854
9.70577e-05
-0.00284797
0.000208749
-0.00267232
0.000379433
-0.00236026
0.000632146
-0.00190395
0.000983379
-0.00128938
0.0013514
-0.000299699
0.0013592
0.00114763
0.000709786
0.0016426
-0.000597657
-0.00248957
-0.0120486
-0.0155771
-0.00905362
-0.00588852
-0.00387353
-0.00283931
-0.00253221
-0.00267122
-0.00297658
-0.00321289
-0.00324906
-0.00317662
-0.00305639
-0.00294024
-0.00284978
-0.00277927
-0.00272007
-0.00266854
-0.0026255
-0.00259348
-0.00257546
-0.00257542
-0.00259422
-0.00262911
-0.00267526
-0.00272675
-0.00277615
-0.00281351
-0.00282477
-0.00279125
-0.00268833
-0.00247396
-0.00208915
-0.0014519
-0.000463707
0.000892122
0.00225547
0.0029693
0.00237583
)
;

boundaryField
{
    floor
    {
        type            calculated;
        value           nonuniform List<scalar> 
36
(
0
0
0
0
0
0
0
0
0
0
0
0
0
0
0
0
0
0
0
-4.83915e-06
-1.23784e-05
-1.85697e-05
-2.364e-05
-2.11164e-05
-1.96192e-05
-1.84536e-05
-2.35098e-06
-3.784e-06
-4.35944e-06
-5.04475e-06
-3.65663e-06
-7.64389e-06
-1.10004e-05
-1.1262e-05
-1.38369e-05
-1.19392e-05
)
;
    }
    ceiling
    {
        type            calculated;
        value           nonuniform List<scalar> 
43
(
-4.18434e-05
-4.11781e-05
-4.04782e-05
-2.74142e-05
-2.22704e-05
-1.8606e-05
-1.50301e-05
-1.20049e-05
-9.92954e-06
-8.50215e-06
-7.66653e-06
-7.28644e-06
-7.13881e-06
-7.11207e-06
-7.12558e-06
-7.14693e-06
-7.17805e-06
-7.22077e-06
-7.26745e-06
-7.30797e-06
-7.31533e-06
-7.27624e-06
-7.19278e-06
-7.08148e-06
-6.95278e-06
-6.80946e-06
-6.64869e-06
-6.4752e-06
-6.28389e-06
-6.07889e-06
-5.85923e-06
-5.62536e-06
-5.37656e-06
-5.10604e-06
-4.81155e-06
-4.42495e-06
-4.13955e-06
-4.04931e-06
-4.18153e-06
-3.60391e-06
6.94077e-06
4.1789e-06
-5.33141e-05
)
;
    }
    sWall
    {
        type            calculated;
        value           uniform -0.000241396;
    }
    nWall
    {
        type            calculated;
        value           nonuniform List<scalar> 6(-5.43173e-05 -6.5434e-05 -6.88139e-05 -8.33262e-05 -9.16833e-05 -0.000110141);
    }
    sideWalls
    {
        type            empty;
        value           nonuniform 0();
    }
    glass1
    {
        type            calculated;
        value           nonuniform List<scalar> 9(-6.04583e-05 -0.000163403 -0.000250424 -0.00032465 -0.000387723 -0.000440784 -0.000487283 -0.000543337 -0.000605862);
    }
    glass2
    {
        type            calculated;
        value           nonuniform List<scalar> 2(-0.000286411 -0.000317011);
    }
    sun
    {
        type            calculated;
        value           uniform 0;
    }
    Table_master
    {
        type            calculated;
        value           nonuniform List<scalar> 9(-1.5364e-07 -1.53789e-07 -1.53839e-07 -1.53869e-07 -1.53889e-07 -1.53902e-07 -1.53906e-07 -1.539e-07 -1.5387e-07);
    }
    Table_slave
    {
        type            calculated;
        value           nonuniform List<scalar> 9(1.5353e-07 1.53515e-07 1.53468e-07 1.53431e-07 1.53408e-07 1.53408e-07 1.53413e-07 1.53451e-07 1.53535e-07);
    }
    inlet
    {
        type            calculated;
        value           uniform -0.0106584;
    }
    outlet
    {
        type            calculated;
        value           nonuniform List<scalar> 2(0.0123319 0.00356968);
    }
}


// ************************************************************************* //
