/*--------------------------------*- C++ -*----------------------------------*\
  =========                 |
  \\      /  F ield         | OpenFOAM: The Open Source CFD Toolbox
   \\    /   O peration     | Website:  https://openfoam.org
    \\  /    A nd           | Version:  6
     \\/     M anipulation  |
\*---------------------------------------------------------------------------*/
FoamFile
{
    version     2.0;
    format      ascii;
    class       volScalarField;
    location    "300";
    object      alphat;
}
// * * * * * * * * * * * * * * * * * * * * * * * * * * * * * * * * * * * * * //

dimensions      [1 -1 -1 0 0 0 0];

internalField   nonuniform List<scalar> 
458
(
0.000779901
0.000796704
0.00069862
0.000712316
0.000731023
0.000749206
0.000766978
0.000785041
0.000804479
0.000822424
0.000838418
0.000852383
0.000865052
0.000878008
0.000889393
0.000329342
0.00035585
0.000361579
0.000311316
0.000265066
0.000225135
0.000205189
0.000213257
0.000233466
0.00025917
0.000283779
0.000296198
0.000297257
0.000305028
0.000323972
0.000376612
0.0003835
0.000340702
0.00138535
0.00260655
0.00186713
0.00273604
0.00302953
0.00320676
0.00334613
0.00344338
0.00348526
0.00349119
0.00343765
0.0032952
0.00301483
0.00251167
0.00172036
0.000975143
0.000931203
0.000624861
0.000463914
0.00095836
0.00110737
0.00106288
0.000648254
0.000324601
0.000303831
0.000386585
0.00053295
0.000710667
0.000882763
0.000998076
0.00104867
0.00112088
0.00132205
0.00113366
0.00093129
0.000401958
0.00195023
0.00481026
0.00225404
0.00358016
0.00456554
0.00492319
0.00512615
0.00525243
0.00531264
0.00532943
0.00530037
0.00520351
0.00499649
0.00460555
0.00395364
0.00307388
0.00203711
0.00101948
0.000736181
0.00202848
0.00182512
0.00146251
0.000979463
0.000298227
0.000294648
0.000328816
0.000364914
0.000402837
0.000444029
0.000492199
0.000555499
0.000655244
0.00204691
0.00196287
0.00154492
0.000691003
0.00249507
0.00769346
0.00364102
0.00368827
0.00495656
0.00557718
0.00591918
0.00613008
0.00624453
0.00631199
0.00636818
0.00640632
0.00639307
0.00625151
0.00585056
0.00504621
0.00375259
0.00215426
0.00106443
0.00279173
0.00281314
0.0022252
0.00156689
0.0010535
0.000695148
0.000697798
0.000701963
0.000707936
0.000718002
0.000734993
0.00076227
0.000804246
0.000876441
0.00293947
0.00316857
0.00280819
0.000921908
0.0029994
0.0108161
0.00650035
0.00488933
0.00514727
0.00560503
0.00601145
0.00632087
0.00650659
0.00662331
0.00675944
0.00694091
0.00716485
0.00738916
0.00752771
0.00748908
0.00722547
0.00673171
0.00611513
0.00591266
0.00542843
0.00490437
0.00449346
0.00418151
0.00396291
0.00385915
0.00376991
0.00367922
0.00359096
0.00352383
0.00350314
0.00354505
0.0036523
0.00385926
0.00386006
0.00367074
0.0030215
0.0012838
0.00114062
0.00100013
0.00345603
0.0135019
0.0103551
0.0078068
0.00668557
0.00623551
0.00620005
0.00633641
0.00647727
0.00655316
0.00666482
0.00686641
0.0071885
0.00761691
0.00807383
0.00843423
0.00860275
0.00851174
0.00815473
0.00765745
0.00710501
0.00660209
0.00619811
0.00589002
0.00565845
0.00547673
0.00530981
0.00512768
0.00491311
0.00468008
0.00447477
0.00433405
0.00424581
0.00416114
0.00404161
0.0038811
0.00359094
0.00291842
0.00220941
0.00105402
0.00380936
0.0146009
0.0128479
0.0106553
0.00910513
0.00792838
0.00720925
0.00681618
0.00661221
0.00650779
0.00646083
0.0065222
0.00674321
0.00716132
0.00775873
0.00835962
0.00879397
0.00895771
0.00881924
0.00845506
0.00798524
0.00751395
0.00709984
0.00676369
0.00650673
0.00631922
0.0061806
0.00605113
0.00587212
0.00560056
0.00526607
0.0049426
0.00465355
0.0043696
0.00405578
0.00367929
0.00318912
0.00257613
0.00195028
0.00104284
0.0037924
0.0119958
0.0110194
0.0111064
0.0103247
0.00922751
0.00826603
0.00751501
0.00696082
0.00657082
0.0063202
0.0062076
0.00625152
0.00649608
0.00696411
0.00758049
0.00817245
0.008564
0.00866832
0.00851305
0.00819847
0.00782559
0.00746063
0.00714173
0.00689037
0.00672023
0.00663953
0.00664021
0.00667241
0.0066307
0.00643662
0.00612756
0.00574391
0.00529075
0.00475915
0.00416766
0.00359094
0.00302181
0.00258078
0.00148861
0.00360669
0.00409822
0.0111759
0.0120233
0.0108646
0.00960626
0.00851863
0.00765211
0.00699379
0.00651165
0.00617632
0.00597561
0.0059189
0.0060266
0.00630883
0.00673741
0.00721861
0.00762183
0.00785044
0.0078844
0.00776806
0.00756525
0.00733026
0.00710172
0.00690603
0.00676405
0.00669761
0.00673246
0.00688764
0.00712704
0.00733516
0.00745194
0.00745616
0.00744307
0.007518
0.00759512
0.00712683
0.00595462
0.00530766
0.00172206
0.0241117
0.0214715
0.0127872
0.0101753
0.00880593
0.00788597
0.00721907
0.00673562
0.0064045
0.00620576
0.00612075
0.00612764
0.0062086
0.00634988
0.00652654
0.00671146
0.0068719
0.00697835
0.00701966
0.00700333
0.00694639
0.00686784
0.00678508
0.00671362
0.00666952
0.00667273
0.00674736
0.00689283
0.00711464
0.00739751
0.00767618
0.0078967
0.0080384
0.00796829
0.00749744
0.00658536
0.00535667
0.00173737
0.00797025
0.0139926
0.00970272
0.00839216
0.00764072
0.00709935
0.00668854
0.00639801
0.00622488
0.00615367
0.0061583
0.00621118
0.00629085
0.00638477
0.00648669
0.00659148
0.00669049
0.00677387
0.00683498
0.00687242
0.00688921
0.00689037
0.00688053
0.00686241
0.00683661
0.00680219
0.00675888
0.00670939
0.00666618
0.00665446
0.00669763
0.00679283
0.00686387
0.00663562
0.0061034
0.00522943
0.00447695
0.00175305
0.00234628
0.00373702
0.00570939
0.00421981
0.00277458
0.00243132
0.00227748
0.00209843
0.00194297
0.00181547
0.00171578
0.00164157
0.00158958
0.00155595
0.00153658
0.00152755
0.00152564
0.00152786
0.00153185
0.0015358
0.00153848
0.00153938
0.00153855
0.00153642
0.00153355
0.00153038
0.00152717
0.00152397
0.0015207
0.0015176
0.00151381
0.00150798
0.00149818
0.00148102
0.00145266
0.00142742
0.00138996
0.00132447
0.0013001
0.00143659
)
;

boundaryField
{
    floor
    {
        type            compressible::alphatWallFunction;
        Prt             0.85;
        value           nonuniform List<scalar> 
36
(
0.000126714
4.24672e-05
4.67302e-05
4.7648e-05
3.9551e-05
3.19438e-05
2.52245e-05
2.18037e-05
2.31855e-05
2.6624e-05
3.0942e-05
3.50233e-05
3.7066e-05
3.72404e-05
3.85127e-05
4.15945e-05
5.00352e-05
5.11314e-05
4.42954e-05
4.42948e-05
5.40261e-05
9.7939e-05
0.000131337
0.00018178
0.000162055
0.000142421
0.000126713
0.000138891
0.000132665
8.81726e-05
4.24666e-05
8.81716e-05
6.37203e-05
0.000145131
0.000104559
0.00015143
)
;
    }
    ceiling
    {
        type            compressible::alphatWallFunction;
        Prt             0.85;
        value           nonuniform List<scalar> 
43
(
0.000322126
0.000495601
0.000730789
0.000554103
0.000376441
0.000332988
0.000313294
0.000290187
0.000269951
0.000253223
0.000240054
0.000230195
0.000223259
0.000218758
0.000216162
0.000214949
0.000214691
0.000214988
0.000215523
0.000216052
0.00021641
0.000216529
0.000216416
0.00021613
0.000215744
0.000215317
0.000214885
0.000214454
0.000214014
0.000213596
0.000213086
0.000212301
0.000210981
0.000208671
0.000204846
0.000201434
0.000196359
0.000187451
0.000184124
0.000202674
0.000479754
0.000539535
0.00099074
)
;
    }
    sWall
    {
        type            compressible::alphatWallFunction;
        Prt             0.85;
        value           uniform 0.000321094;
    }
    nWall
    {
        type            compressible::alphatWallFunction;
        Prt             0.85;
        value           nonuniform List<scalar> 6(0.000142248 0.000149814 0.000148249 0.000242572 0.000244643 0.000202375);
    }
    sideWalls
    {
        type            empty;
    }
    glass1
    {
        type            compressible::alphatWallFunction;
        Prt             0.85;
        value           nonuniform List<scalar> 9(0.000108162 0.000191625 0.000265965 0.000335605 0.000398735 0.000455012 0.000498088 0.000496171 0.000473804);
    }
    glass2
    {
        type            compressible::alphatWallFunction;
        Prt             0.85;
        value           nonuniform List<scalar> 2(0.000208658 0.000239746);
    }
    sun
    {
        type            compressible::alphatWallFunction;
        Prt             0.85;
        value           nonuniform List<scalar> 
14
(
0.000110971
0.00011339
9.90902e-05
0.000101102
0.000103841
0.000106496
0.000109083
0.000111704
0.000114518
0.000117108
0.000119411
0.000121417
0.000123233
0.000125088
)
;
    }
    Table_master
    {
        type            compressible::alphatWallFunction;
        Prt             0.85;
        value           nonuniform List<scalar> 9(3.74843e-05 3.68946e-05 4.2458e-05 4.8254e-05 5.42637e-05 6.07094e-05 6.81511e-05 7.7792e-05 9.27111e-05);
    }
    Table_slave
    {
        type            compressible::alphatWallFunction;
        Prt             0.85;
        value           nonuniform List<scalar> 9(9.86121e-05 9.90002e-05 9.96109e-05 0.000100487 0.000101961 0.000104446 0.000108421 0.000114506 0.000124884);
    }
    inlet
    {
        type            fixedValue;
        value           uniform 1.94e-05;
    }
    outlet
    {
        type            zeroGradient;
    }
}


// ************************************************************************* //
