/*--------------------------------*- C++ -*----------------------------------*\
  =========                 |
  \\      /  F ield         | OpenFOAM: The Open Source CFD Toolbox
   \\    /   O peration     | Website:  https://openfoam.org
    \\  /    A nd           | Version:  6
     \\/     M anipulation  |
\*---------------------------------------------------------------------------*/
FoamFile
{
    version     2.0;
    format      ascii;
    class       volScalarField;
    location    "300";
    object      k;
}
// * * * * * * * * * * * * * * * * * * * * * * * * * * * * * * * * * * * * * //

dimensions      [0 2 -2 0 0 0 0];

internalField   nonuniform List<scalar> 
458
(
0.002469
0.00294976
0.00310782
0.00342355
0.00373054
0.00403713
0.0043614
0.00469182
0.00496516
0.00513063
0.00513
0.00491392
0.00443367
0.00332871
0.0020656
0.000507197
0.000701062
0.000920591
0.00102185
0.000995766
0.000868655
0.000738506
0.000631609
0.000546275
0.00047757
0.000421662
0.000375595
0.000337232
0.000304253
0.00027463
0.000246351
0.000226678
0.00018885
0.00438344
0.00801734
0.0046334
0.00491432
0.00533128
0.00583785
0.00643188
0.00710456
0.00779844
0.00835592
0.00861687
0.00848261
0.00795866
0.00692747
0.00543672
0.00358327
0.00250275
0.00164935
0.000490393
0.00108003
0.0015047
0.00171267
0.00173929
0.00147819
0.00119415
0.000966376
0.000793972
0.000662825
0.000561635
0.000482056
0.000416781
0.000361983
0.000321847
0.000298084
0.00049615
0.000300677
0.00639428
0.0142732
0.00546992
0.00529881
0.00558286
0.00601713
0.00659509
0.00731553
0.0080705
0.00869181
0.00905796
0.00907963
0.00873469
0.00790726
0.00675387
0.00549787
0.00439458
0.00239552
0.00112887
0.00155228
0.00185297
0.00204691
0.00205722
0.00159091
0.00120399
0.000924782
0.00072658
0.000584615
0.00048125
0.000404698
0.00034805
0.000307626
0.000285811
0.000288788
0.000758693
0.000405015
0.0086777
0.0229869
0.0065724
0.00527622
0.0053625
0.00572427
0.00632493
0.00716901
0.00797467
0.00861339
0.00904429
0.00915625
0.00884589
0.00810917
0.0071335
0.00617449
0.00524097
0.00390709
0.0031337
0.00278984
0.00270576
0.00273697
0.00273436
0.00259834
0.00205693
0.00171105
0.00148531
0.00132292
0.00119047
0.00107343
0.00096675
0.000860598
0.000745979
0.000555394
0.000436229
0.00109022
0.000525651
0.0113718
0.0348105
0.00929584
0.00537011
0.00511094
0.00545502
0.00631799
0.00747694
0.00831071
0.00892118
0.00936112
0.00944543
0.00903342
0.0081594
0.00707032
0.00608046
0.00526803
0.004569
0.00434659
0.00406014
0.00386526
0.00370575
0.00348967
0.00318046
0.00281884
0.00254808
0.00236389
0.0022113
0.00205481
0.00186964
0.00165302
0.0014144
0.00116578
0.00089854
0.000675439
0.000909556
0.000995448
0.000927125
0.0010589
0.00125702
0.0146706
0.0476338
0.0162747
0.00683982
0.00556438
0.00573046
0.00731597
0.00860227
0.00926422
0.00974846
0.0100968
0.0100926
0.00950576
0.00834856
0.00694965
0.00573347
0.00493768
0.00459191
0.00459864
0.00464321
0.00456555
0.00432523
0.00395275
0.00351341
0.00312445
0.00287821
0.00272336
0.00259038
0.0024429
0.00225952
0.00202183
0.00175171
0.00146906
0.00118659
0.000956964
0.00090742
0.00100571
0.0010277
0.00162314
0.00135557
0.0182506
0.0559623
0.0285833
0.0140085
0.00995994
0.00925619
0.0103623
0.0107145
0.0108487
0.0110708
0.0112658
0.0110836
0.0102159
0.0086815
0.00690891
0.00546871
0.00471182
0.00462352
0.004839
0.00495087
0.00480049
0.0044365
0.003962
0.0034848
0.00311817
0.00291191
0.00280313
0.00272597
0.00264972
0.00255677
0.00241644
0.00220712
0.0019613
0.00170191
0.0014966
0.00140033
0.00147777
0.00170515
0.00224865
0.00194838
0.0191571
0.056656
0.0388086
0.0283258
0.02156
0.0180066
0.0153181
0.0136408
0.0129358
0.0128382
0.0128192
0.0123248
0.010994
0.008924
0.00672415
0.00516225
0.00455717
0.00459606
0.00475024
0.00471499
0.00442375
0.00398093
0.0035102
0.00311061
0.00284548
0.0027164
0.00267637
0.00268837
0.00273962
0.00282821
0.00295145
0.00306554
0.00311287
0.00315651
0.00332416
0.00391166
0.00515628
0.00683592
0.0126819
0.0046093
0.0183586
0.0264968
0.0243324
0.0216807
0.0189922
0.0167338
0.0152001
0.0145798
0.0146264
0.0148274
0.01462
0.01352
0.0113105
0.008377
0.00576717
0.00457625
0.004185
0.00412233
0.00405898
0.00385382
0.00351956
0.00312115
0.00275614
0.00248739
0.0023371
0.0022889
0.0023124
0.00238815
0.00250936
0.00267483
0.00288373
0.00313358
0.00344971
0.00386037
0.00439485
0.00502061
0.00559325
0.00594933
0.00612608
0.00402009
0.00674013
0.0105288
0.0133598
0.0153414
0.0168597
0.0179272
0.0181912
0.0175226
0.015845
0.0129961
0.00883552
0.00584828
0.00426027
0.00359469
0.00330442
0.00312324
0.00291266
0.00263648
0.00233149
0.00205672
0.0018467
0.00172135
0.00167855
0.00169879
0.00176462
0.00186738
0.00200568
0.00218347
0.00241173
0.00271089
0.00307849
0.00351538
0.00399794
0.00443677
0.00466752
0.00455678
0.00412478
0.00262322
0.00808599
0.0210311
0.0245281
0.0251359
0.0245635
0.0218238
0.0181575
0.0140822
0.0100366
0.0067157
0.00447257
0.00330106
0.00267336
0.0023224
0.00207861
0.00185976
0.00163725
0.00142412
0.00125214
0.00114407
0.00110197
0.00111444
0.00116543
0.00124909
0.00136278
0.00150747
0.00168671
0.00190558
0.00217563
0.00250487
0.00290341
0.00337244
0.00388519
0.00437757
0.00466545
0.00493321
0.00434817
0.00269883
0.00907874
0.00957827
0.010034
0.0125095
0.0112033
0.00886818
0.00667545
0.00519394
0.00419333
0.00326497
0.00251593
0.00191963
0.00150426
0.00124526
0.00108177
0.000964537
0.0008691
0.000786273
0.000717415
0.000669182
0.000646422
0.000648445
0.000671028
0.000710119
0.000763506
0.000828741
0.000906364
0.000998133
0.00110719
0.00123905
0.00139511
0.00157884
0.00179514
0.00204962
0.00234729
0.002733
0.00288562
0.00275659
0.00239121
0.00204749
)
;

boundaryField
{
    floor
    {
        type            kqRWallFunction;
        value           nonuniform List<scalar> 
36
(
0.0020656
0.000507197
0.000701062
0.000920591
0.00102185
0.000995766
0.000868655
0.000738506
0.000631609
0.000546275
0.00047757
0.000421662
0.000375595
0.000337232
0.000304253
0.00027463
0.000246351
0.000226678
0.00018885
0.00018885
0.000300677
0.000405015
0.000525651
0.000927125
0.0010589
0.00125702
0.0020656
0.00358327
0.00250275
0.00164935
0.000507197
0.00164935
0.000490393
0.00239552
0.00112887
0.0031337
)
;
    }
    ceiling
    {
        type            kqRWallFunction;
        value           nonuniform List<scalar> 
43
(
0.00907874
0.00957827
0.010034
0.0125095
0.0112033
0.00886818
0.00667545
0.00519394
0.00419333
0.00326497
0.00251593
0.00191963
0.00150426
0.00124526
0.00108177
0.000964537
0.0008691
0.000786273
0.000717415
0.000669182
0.000646422
0.000648445
0.000671028
0.000710119
0.000763506
0.000828741
0.000906364
0.000998133
0.00110719
0.00123905
0.00139511
0.00157884
0.00179514
0.00204962
0.00234729
0.002733
0.00288562
0.00275659
0.00239121
0.00204749
0.0183586
0.0264968
0.00808599
)
;
    }
    sWall
    {
        type            kqRWallFunction;
        value           uniform 0.00907874;
    }
    nWall
    {
        type            kqRWallFunction;
        value           nonuniform List<scalar> 6(0.00125702 0.00135557 0.00194838 0.00262322 0.00269883 0.00204749);
    }
    sideWalls
    {
        type            empty;
    }
    glass1
    {
        type            kqRWallFunction;
        value           nonuniform List<scalar> 9(0.002469 0.00438344 0.00639428 0.0086777 0.0113718 0.0146706 0.0182506 0.0191571 0.0183586);
    }
    glass2
    {
        type            kqRWallFunction;
        value           nonuniform List<scalar> 2(0.0046093 0.00402009);
    }
    sun
    {
        type            kqRWallFunction;
        value           nonuniform List<scalar> 
14
(
0.002469
0.00294976
0.00310782
0.00342355
0.00373054
0.00403713
0.0043614
0.00469182
0.00496516
0.00513063
0.00513
0.00491392
0.00443367
0.00332871
)
;
    }
    Table_master
    {
        type            kqRWallFunction;
        value           nonuniform List<scalar> 9(0.00159091 0.00120399 0.000924782 0.00072658 0.000584615 0.00048125 0.000404698 0.00034805 0.000307626);
    }
    Table_slave
    {
        type            kqRWallFunction;
        value           nonuniform List<scalar> 9(0.00205693 0.00171105 0.00148531 0.00132292 0.00119047 0.00107343 0.00096675 0.000860598 0.000745979);
    }
    inlet
    {
        type            turbulentIntensityKineticEnergyInlet;
        intensity       0.05;
        value           uniform 0.000937501;
    }
    outlet
    {
        type            zeroGradient;
    }
}


// ************************************************************************* //
