/*--------------------------------*- C++ -*----------------------------------*\
  =========                 |
  \\      /  F ield         | OpenFOAM: The Open Source CFD Toolbox
   \\    /   O peration     | Website:  https://openfoam.org
    \\  /    A nd           | Version:  6
     \\/     M anipulation  |
\*---------------------------------------------------------------------------*/
FoamFile
{
    version     2.0;
    format      ascii;
    class       volScalarField;
    location    "300";
    object      nut;
}
// * * * * * * * * * * * * * * * * * * * * * * * * * * * * * * * * * * * * * //

dimensions      [0 2 -1 0 0 0 0];

internalField   nonuniform List<scalar> 
458
(
0.00111584
0.00121964
0.00125189
0.00131395
0.00137159
0.00142684
0.00148303
0.00153818
0.00158236
0.00160851
0.00160841
0.00157417
0.00149527
0.00129564
0.00102062
0.00050574
0.000594588
0.00068135
0.000717843
0.000708622
0.00066185
0.000610258
0.000564366
0.000524858
0.000490744
0.000461125
0.000435208
0.000412383
0.0003917
0.000372144
0.000352463
0.000338098
0.000308601
0.00148679
0.00346068
0.00323622
0.00371923
0.00421211
0.00471134
0.0051438
0.00549913
0.00585712
0.0061846
0.00643916
0.00657861
0.00656445
0.0062464
0.0048365
0.00134425
0.00112344
0.000912004
0.000497292
0.0012254
0.00183107
0.00229597
0.00242979
0.00173374
0.00145157
0.00126262
0.00112453
0.00101958
0.000936907
0.000869269
0.000805152
0.000739538
0.00067902
0.000628928
0.000747133
0.000389397
0.00179572
0.00466543
0.00395073
0.0047701
0.00515026
0.00542091
0.00562972
0.00583808
0.00611393
0.00644621
0.00680759
0.00714329
0.00739708
0.00741097
0.00689466
0.00560744
0.00416386
0.0010991
0.000754505
0.00135706
0.00204542
0.00272279
0.00289687
0.000895692
0.000779197
0.000682899
0.000605312
0.000542966
0.000492633
0.000451756
0.000418948
0.000393869
0.00043917
0.000516441
0.000877342
0.00045194
0.00209192
0.00590149
0.0038897
0.00495107
0.00516078
0.00515833
0.00516534
0.00527511
0.00550317
0.0058459
0.00628681
0.00673828
0.00711755
0.0072861
0.00718524
0.00677261
0.00574183
0.00311913
0.00125709
0.00156957
0.00220914
0.00303348
0.00376301
0.00380628
0.00101846
0.000928896
0.000865455
0.000816777
0.000774812
0.000735741
0.000698226
0.00065878
0.000613344
0.000571273
0.000567064
0.0010355
0.000514867
0.00239474
0.00754201
0.00409553
0.0047315
0.00501292
0.00485912
0.00475906
0.0048462
0.00506806
0.00542596
0.0059194
0.00640736
0.00675714
0.00690786
0.00688466
0.00674037
0.00630657
0.00519528
0.00461882
0.00472559
0.0050724
0.00546803
0.00572417
0.00565068
0.0047817
0.00431393
0.00403771
0.00383197
0.00362598
0.00334289
0.00295508
0.00248257
0.0019611
0.0014708
0.00110016
0.00105782
0.000871397
0.00068378
0.000730756
0.000796189
0.00271999
0.00938457
0.00553107
0.00447158
0.00482595
0.0048615
0.0046508
0.0047391
0.00494377
0.00530437
0.00579495
0.00628061
0.00659824
0.006669
0.00656998
0.00646623
0.00642493
0.00632567
0.00648644
0.00683426
0.00709895
0.00718856
0.00708307
0.00678995
0.00632263
0.00591201
0.00557125
0.00525988
0.00494934
0.00461185
0.0041874
0.00366625
0.00305399
0.00240142
0.00183093
0.00135805
0.00109839
0.000945492
0.00118865
0.000826811
0.00303377
0.0107392
0.00799397
0.00551179
0.00493329
0.00502955
0.00494117
0.00490226
0.0050252
0.00537479
0.0058812
0.00636763
0.0066424
0.00662497
0.00645476
0.00642701
0.00675521
0.00725973
0.00776031
0.00808663
0.00813104
0.00792961
0.00754637
0.00704764
0.00650452
0.00601102
0.00558677
0.00521343
0.00487625
0.00457289
0.00430039
0.00397063
0.00352264
0.00297385
0.00243529
0.00194567
0.00161976
0.00147787
0.00140256
0.000991246
0.0031082
0.00979171
0.00843682
0.00726666
0.00642057
0.00594385
0.00539269
0.005098
0.0051852
0.00559623
0.00615532
0.00662917
0.00681852
0.00668541
0.00651759
0.00678112
0.00749146
0.00798173
0.00827837
0.00833081
0.00809171
0.00762113
0.00699865
0.00631038
0.00565681
0.00511822
0.00469928
0.00437117
0.00411633
0.00393197
0.00382123
0.00376804
0.0036237
0.00331119
0.00302621
0.00287272
0.00293977
0.00309555
0.00364086
0.00152462
0.00304273
0.00365545
0.00403242
0.00423824
0.00427684
0.00424979
0.00433933
0.00468094
0.00527825
0.00600219
0.00664699
0.00700888
0.00697041
0.00664577
0.00676157
0.00720497
0.00759556
0.00775206
0.00770967
0.00744603
0.00695726
0.00628176
0.00552143
0.00479716
0.00421135
0.00378816
0.00348766
0.00326494
0.0030909
0.00294641
0.00281646
0.0026901
0.00258677
0.00250139
0.00244327
0.0024057
0.00233811
0.00220962
0.00205809
0.00142385
0.00126016
0.002235
0.00317956
0.00405642
0.00494815
0.0058656
0.00665063
0.00718316
0.0073455
0.00711113
0.00668713
0.00631615
0.00644076
0.00662167
0.00661685
0.0064344
0.00608586
0.00556745
0.00491825
0.00423371
0.00361062
0.0031302
0.00281155
0.00261389
0.00249055
0.00241128
0.00235979
0.00232806
0.00231532
0.00232667
0.00234345
0.00235897
0.00236214
0.00232681
0.00221522
0.00202078
0.00177753
0.00115017
0.00201935
0.00420382
0.00570489
0.00677057
0.00755042
0.00764033
0.00747442
0.007072
0.00625263
0.00540533
0.00493994
0.00478134
0.00472905
0.00458951
0.00434148
0.0039918
0.00354661
0.00304703
0.00257441
0.0022073
0.00197286
0.00184903
0.0017933
0.00178673
0.00181296
0.00186207
0.00192714
0.00200117
0.00208867
0.00218496
0.00228631
0.00238523
0.00246568
0.00250799
0.00247104
0.00244182
0.00230312
0.00116663
0.00213972
0.00219779
0.00224947
0.00251167
0.00237693
0.00211475
0.00183476
0.00161839
0.00145417
0.00128314
0.00112637
0.000983876
0.00087095
0.000792428
0.000738579
0.000697412
0.000662012
0.00062968
0.000601481
0.000580915
0.000570955
0.000571851
0.000581726
0.000598432
0.000620521
0.000646486
0.000676085
0.000709486
0.00074724
0.000790485
0.00083879
0.000892313
0.000951473
0.00101668
0.001088
0.001174
0.00120633
0.00117905
0.00109814
0.00101615
)
;

boundaryField
{
    floor
    {
        type            nutkWallFunction;
        Cmu             0.09;
        kappa           0.41;
        E               9.8;
        value           nonuniform List<scalar> 
36
(
0.000123142
6.04489e-05
7.16729e-05
8.24368e-05
8.6914e-05
8.57854e-05
8.00329e-05
7.36304e-05
6.78799e-05
6.28835e-05
5.85317e-05
5.47228e-05
5.13646e-05
4.83863e-05
4.56693e-05
4.30834e-05
4.04633e-05
3.85387e-05
3.45529e-05
3.45529e-05
4.53641e-05
5.35332e-05
6.161e-05
8.27328e-05
8.84889e-05
9.64344e-05
0.000123142
0.000160512
0.000135143
0.000110313
6.04489e-05
0.000110313
5.93694e-05
0.000132315
9.13835e-05
0.000150561
)
;
    }
    ceiling
    {
        type            nutkWallFunction;
        Cmu             0.09;
        kappa           0.41;
        E               9.8;
        value           nonuniform List<scalar> 
43
(
0.000248416
0.000254681
0.000260243
0.000288335
0.000274017
0.000245843
0.00021532
0.00019138
0.000172972
0.000153551
0.000135492
0.000118827
0.000105422
9.59834e-05
8.94468e-05
8.44113e-05
8.00528e-05
7.60473e-05
7.25333e-05
6.99578e-05
6.87063e-05
6.88185e-05
7.00583e-05
7.21502e-05
7.49053e-05
7.81291e-05
8.1785e-05
8.58878e-05
9.04977e-05
9.57443e-05
0.000101565
0.000107969
0.000114996
0.000122683
0.000131027
0.000141004
0.000144735
0.000141589
0.000132207
0.000122622
0.000344536
0.000407824
0.000235286
)
;
    }
    sWall
    {
        type            nutkWallFunction;
        Cmu             0.09;
        kappa           0.41;
        E               9.8;
        value           uniform 0.000248483;
    }
    nWall
    {
        type            nutkWallFunction;
        Cmu             0.09;
        kappa           0.41;
        E               9.8;
        value           nonuniform List<scalar> 6(9.64348e-05 0.000100127 0.000119696 0.00013826 0.000140164 0.000122628);
    }
    sideWalls
    {
        type            empty;
    }
    glass1
    {
        type            nutkWallFunction;
        Cmu             0.09;
        kappa           0.41;
        E               9.8;
        value           nonuniform List<scalar> 9(0.000134383 0.000176874 0.000211346 0.00024379 0.000276452 0.000311051 0.000344021 0.000351798 0.000344984);
    }
    glass2
    {
        type            nutkWallFunction;
        Cmu             0.09;
        kappa           0.41;
        E               9.8;
        value           nonuniform List<scalar> 2(0.000180981 0.000169623);
    }
    sun
    {
        type            nutkWallFunction;
        Cmu             0.09;
        kappa           0.41;
        E               9.8;
        value           nonuniform List<scalar> 
14
(
0.000134264
0.00014626
0.000149963
0.000157061
0.00016362
0.000169878
0.000176216
0.00018241
0.000187353
0.000190273
0.000190261
0.000186438
0.000177591
0.000154968
)
;
    }
    Table_master
    {
        type            nutkWallFunction;
        Cmu             0.09;
        kappa           0.41;
        E               9.8;
        value           nonuniform List<scalar> 9(0.000108372 9.43809e-05 8.2629e-05 7.30163e-05 6.51838e-05 5.87799e-05 5.35194e-05 4.92541e-05 4.59652e-05);
    }
    Table_slave
    {
        type            nutkWallFunction;
        Cmu             0.09;
        kappa           0.41;
        E               9.8;
        value           nonuniform List<scalar> 9(0.00012289 0.00011232 0.000104762 9.89194e-05 9.38493e-05 8.90997e-05 8.4511e-05 7.9654e-05 7.40161e-05);
    }
    inlet
    {
        type            calculated;
        value           uniform 0.000167705;
    }
    outlet
    {
        type            calculated;
        value           nonuniform List<scalar> 2(0.00213972 0.00219779);
    }
}


// ************************************************************************* //
