/*--------------------------------*- C++ -*----------------------------------*\
  =========                 |
  \\      /  F ield         | OpenFOAM: The Open Source CFD Toolbox
   \\    /   O peration     | Website:  https://openfoam.org
    \\  /    A nd           | Version:  6
     \\/     M anipulation  |
\*---------------------------------------------------------------------------*/
FoamFile
{
    version     2.0;
    format      ascii;
    class       surfaceScalarField;
    location    "300";
    object      phi;
}
// * * * * * * * * * * * * * * * * * * * * * * * * * * * * * * * * * * * * * //

dimensions      [1 0 -1 0 0 0 0];

internalField   nonuniform List<scalar> 
850
(
-0.00308576
0.0031453
-0.00423794
0.00115217
-0.00512823
0.00089028
-0.00581608
0.000687843
-0.00626684
0.000450756
-0.00644529
0.000178447
-0.00631049
-0.000134811
-0.00582201
-0.000488482
-0.00498135
-0.000840671
-0.00385701
-0.00112434
-0.00257599
-0.00128102
-0.00130345
-0.00127255
-0.000236032
-0.00106743
0.000286413
-0.000522453
0.000288627
-0.000931836
0.000935217
-0.00071756
-0.00021429
-8.65526e-05
-0.00063102
0.000538806
-0.000625372
0.00102266
-0.000483871
0.00129752
-0.00027487
0.00141684
-0.000119337
0.00147791
-6.10869e-05
0.00151545
-3.7551e-05
0.00153682
-2.13883e-05
0.00154606
-9.25215e-06
0.00154401
2.03177e-06
0.00152436
1.96368e-05
0.0014667
5.76462e-05
0.00133614
0.000130544
0.0011171
0.000219022
0.000817529
0.00029955
0.000821941
-0.00222472
0.00553124
-0.00333993
0.00226738
-0.00425873
0.00180906
-0.00494941
0.00137852
-0.00540812
0.000909454
-0.00560894
0.000379267
-0.00550963
-0.000234133
-0.00507624
-0.000921874
-0.0043243
-0.00159262
-0.00334026
-0.00210839
-0.00225579
-0.0023655
-0.00121588
-0.00231246
-0.000347983
-0.00193534
0.000339729
-0.00121017
0.00111064
-0.000482291
0.00126543
-0.000151234
0.000975608
0.000293903
0.000987559
1.07737e-05
0.000934696
0.000410563
-0.000614092
0.000797607
-0.00101808
0.00112419
-0.000951972
0.00138448
-0.00074417
0.00144528
-0.000335686
0.00145482
-0.000128892
0.00146654
-7.28172e-05
0.00147633
-4.73528e-05
0.00148215
-2.72305e-05
0.00148512
-1.22333e-05
0.00148528
1.85812e-06
0.00147987
2.50306e-05
0.00144241
9.50826e-05
0.00128513
0.000287808
0.00100919
0.000494945
0.000658538
0.000650183
0.00149205
-0.00156536
0.00734406
-0.00251862
0.00322063
-0.00334415
0.00263458
-0.00395345
0.00198781
-0.00437638
0.00133238
-0.00458339
0.000586269
-0.00451039
-0.000307146
-0.00410831
-0.00132396
-0.00341774
-0.00228319
-0.0025514
-0.00297474
-0.00163898
-0.00327792
-0.000794384
-0.00315706
-8.74219e-05
-0.0026423
0.000517709
-0.00181531
0.00100101
-0.000965601
0.00110244
-0.000252668
0.000854559
0.000541773
0.00185256
0.00143323
-0.000485471
0.00165572
-0.000836588
0.0016267
-0.000989073
0.00167196
-0.000997244
0.00187661
-0.000948831
0.00154106
0.00141231
0.00133963
0.00129242
0.00126533
0.00125323
0.00125523
0.0012804
0.00137562
0.00114747
0.000515932
0.000861937
0.000780463
0.000499615
0.00101249
0.00200922
-0.00108779
0.00875313
-0.00183103
0.00396386
-0.00239838
0.00320192
-0.00282364
0.00241307
-0.00314048
0.00164921
-0.00331294
0.000758718
-0.00323039
-0.000389702
-0.00282718
-0.00172718
-0.00219878
-0.0029116
-0.00147864
-0.00369488
-0.000772913
-0.00398365
-0.000152792
-0.00377719
0.000358567
-0.00315367
0.000804757
-0.00226151
0.00115951
-0.00132037
0.00135851
-0.000451674
0.00154848
0.000351792
0.00254575
0.000855282
0.00238045
0.000176383
0.00221969
-0.000324721
0.00209663
-0.000713531
0.00194809
-0.000840544
0.00178688
-0.000836045
0.00152944
-0.000691414
0.00184332
-0.000314044
0.00199924
-0.000156087
0.00210265
-0.000103579
0.00217321
-7.07353e-05
0.00220252
-2.94809e-05
0.00217277
2.95826e-05
0.00205975
0.000112845
0.00182763
0.000231941
0.00141609
0.000411369
0.00118953
0.000742467
0.000845369
0.00112461
0.000377011
0.00148082
0.00240873
-0.000744838
0.00988215
-0.00128961
0.00450863
-0.0014484
0.0033607
-0.00159462
0.00255927
-0.00172252
0.00177711
-0.00179368
0.000829867
-0.00162215
-0.000561242
-0.00119391
-0.00215542
-0.000668916
-0.00343659
-0.000159517
-0.00420428
0.000272709
-0.00441588
0.000608254
-0.00411274
0.00087431
-0.00341973
0.00110655
-0.00249376
0.00130745
-0.00152128
0.00150355
-0.000647781
0.00180623
4.90981e-05
0.00224825
0.000413257
0.00227152
0.000153102
0.00218505
-0.000238264
0.00198073
-0.000509219
0.00176306
-0.00062289
0.00155355
-0.000626549
0.00139208
-0.000529955
0.00142021
-0.000342197
0.0014763
-0.000212195
0.00152723
-0.000154529
0.00157627
-0.0001198
0.00161803
-7.12593e-05
0.00163424
1.33478e-05
0.00160366
0.000143406
0.00151309
0.000322487
0.00136547
0.000558967
0.00122152
0.000886392
0.0010636
0.00128251
0.000753288
0.00179111
0.00100847
0.00215353
-0.00106418
0.00209264
-0.00174574
0.000699877
-0.00167597
-0.000627654
0.010947
-0.000973121
0.00485409
-0.000568093
0.00295566
-0.000331059
0.00232223
-0.000208327
0.00165437
-4.19269e-05
0.000663457
0.000319043
-0.000922222
0.000742601
-0.00257898
0.0010879
-0.0037819
0.00130446
-0.00442083
0.0013967
-0.00450813
0.0014041
-0.00412014
0.00136319
-0.00337883
0.00131245
-0.00244303
0.00127993
-0.00148877
0.00130453
-0.000672392
0.00143603
-8.24061e-05
0.00164466
0.000204617
0.00169112
0.000106626
0.0015803
-0.000127457
0.00138736
-0.000316289
0.00118101
-0.000416556
0.000992002
-0.000437559
0.000853513
-0.000391485
0.000810251
-0.000298956
0.000828461
-0.000230427
0.000875533
-0.000201623
0.000940628
-0.000184919
0.00101833
-0.000148984
0.001098
-6.63506e-05
0.00116131
8.00797e-05
0.00120035
0.000283417
0.00122495
0.000534341
0.00127211
0.000839212
0.00138841
0.00116619
0.00160796
0.00157154
0.00198617
0.00177531
0.00229614
0.00178264
0.00180224
0.00119375
0.000189566
-0.00072062
0.0121516
-0.000559377
0.00469284
0.000581381
0.00181489
0.00112671
0.00177689
0.00147459
0.00130647
0.00198238
0.000155658
0.00253442
-0.00147428
0.00286254
-0.0029071
0.00294232
-0.00386168
0.00279938
-0.00427789
0.00249239
-0.00420114
0.00209575
-0.00372351
0.00167454
-0.00295762
0.0012848
-0.00205331
0.00097183
-0.00117581
0.000783121
-0.000483696
0.000739008
-3.83063e-05
0.000796042
0.00014757
0.000803908
9.87462e-05
0.000718723
-4.22884e-05
0.000574619
-0.000172203
0.000411564
-0.00025352
0.000259516
-0.000285532
0.000147185
-0.000279175
0.000100962
-0.000252756
0.000110505
-0.000239994
0.000154671
-0.000245814
0.000223509
-0.000253782
0.00031766
-0.000243161
0.000442187
-0.000190904
0.000589601
-6.73602e-05
0.000744852
0.00012814
0.000913311
0.000365857
0.00112381
0.000628689
0.00140719
0.000882788
0.00181447
0.00116423
0.00236185
0.0012279
0.00312504
0.00101943
0.00329347
0.0010253
0.00354918
0.00278378
0.00990797
0.00347397
0.00400265
0.0036073
0.00168156
0.00382375
0.00156043
0.00425591
0.000874299
0.00487525
-0.000463702
0.00523654
-0.00183557
0.0051969
-0.00286746
0.0047902
-0.00345497
0.00411376
-0.00360145
0.00328466
-0.00337204
0.00241084
-0.00284969
0.00157154
-0.00211834
0.000842878
-0.00132466
0.000283987
-0.000616934
-4.03466e-05
-0.000159378
-0.000152982
7.43126e-05
-0.000147197
0.000141768
-0.000149159
0.00010069
-0.000205147
1.36799e-05
-0.000305794
-7.1577e-05
-0.000425273
-0.000134063
-0.00053815
-0.000172679
-0.000623315
-0.000194034
-0.000667345
-0.000208752
-0.000677804
-0.000229561
-0.000667723
-0.000255922
-0.000643005
-0.000278527
-0.000599939
-0.000286254
-0.000523542
-0.000267328
-0.000384342
-0.000206587
-0.000181637
-7.45909e-05
6.16889e-05
0.000122504
0.000344588
0.000345764
0.00066088
0.000566471
0.00103924
0.000785845
0.00145504
0.000812081
0.00183878
0.000635663
0.00116999
0.00169407
0.00499521
0.0105036
0.0145018
0.0126349
0.00354844
0.0115009
0.00269448
0.0107114
0.00166382
0.00986762
0.00038005
0.00876924
-0.000737179
0.00747583
-0.00157404
0.00607115
-0.00205028
0.00461929
-0.00214958
0.00320024
-0.00195299
0.00189045
-0.00153991
0.000715101
-0.00094301
-0.000195027
-0.000414554
-0.000749419
-6.25608e-05
-0.000990261
8.1444e-05
-0.00105394
0.000137974
-0.00105398
0.000141782
-0.00106014
0.000106829
-0.00109824
5.17547e-05
-0.00116745
-2.38991e-06
-0.00125477
-4.6772e-05
-0.00134406
-8.34137e-05
-0.00142406
-0.00011406
-0.00149121
-0.000141631
-0.00155323
-0.000167569
-0.0016215
-0.000187675
-0.00170668
-0.000193377
-0.00181986
-0.000173098
-0.0019749
-0.000112321
-0.00218572
4.20449e-06
-0.00244549
0.000185153
-0.00276938
0.000446369
-0.00323249
0.000808848
-0.00393716
0.00127112
-0.0049522
0.00180086
-0.0063992
0.00225906
-0.00809706
0.0023335
-0.00761467
0.00121166
-0.0023147
0.0089779
0.00524978
0.0074659
0.00420652
0.0070072
0.00212257
0.006593
0.000794317
0.00588072
-2.48494e-05
0.00487831
-0.000571606
0.00368425
-0.000856206
0.00237888
-0.000844209
0.00106141
-0.000635548
-0.00015446
-0.000324063
-0.00108153
-1.59651e-05
-0.00160017
0.000104066
-0.00180879
0.00014603
-0.00187495
0.000147585
-0.00188069
0.000143685
-0.0018717
0.000132777
-0.00187569
0.000110786
-0.00190454
8.05846e-05
-0.00195569
4.87296e-05
-0.00202214
1.96449e-05
-0.00209897
-6.60815e-06
-0.00218148
-3.15765e-05
-0.00226858
-5.45578e-05
-0.00236395
-7.22279e-05
-0.00247127
-8.03853e-05
-0.0025914
-7.32727e-05
-0.00272102
-4.35116e-05
-0.0028508
1.74374e-05
-0.00296852
0.000121898
-0.00307259
0.0002892
-0.00317202
0.000545767
-0.00327358
0.000910384
-0.00337861
0.00137613
-0.00344991
0.00187213
-0.00342813
0.00223725
-0.00313799
0.00204333
-0.00180275
-0.000123602
-0.00403786
-0.000862556
0.00616689
0.000509295
0.0028347
0.000963511
0.00166838
0.000990447
0.000767399
0.00077119
0.000194406
0.000297208
-9.764e-05
-0.000430377
-0.000128657
-0.00124433
-3.02806e-05
-0.00194968
6.97695e-05
-0.00241007
0.000136304
-0.00259291
0.000166852
-0.00263948
0.000150607
-0.00262571
0.000132235
-0.00259528
0.000117131
-0.00256051
0.000108889
-0.00253027
0.000102505
-0.00251224
9.27259e-05
-0.00250965
7.7965e-05
-0.00252051
5.9567e-05
-0.00254041
3.95157e-05
-0.0025665
1.94462e-05
-0.00259905
9.46271e-07
-0.00263935
-1.42903e-05
-0.00268694
-2.46611e-05
-0.00273908
-2.82798e-05
-0.00278994
-2.24371e-05
-0.00283045
-3.02827e-06
-0.00284851
3.547e-05
-0.00282799
0.000101354
-0.0027453
0.000206475
-0.00256648
0.000366928
-0.00226137
0.000605243
-0.00181795
0.000932689
-0.00121565
0.0012698
-0.000247547
0.00126912
0.00114352
0.000652241
0.00162007
-0.000600178
-0.00233027
-0.0117935
-0.015343
-0.00913669
-0.00627616
-0.00458809
-0.00380577
-0.00360054
-0.00369029
-0.00381307
-0.00383893
-0.0037657
-0.00362662
-0.00345746
-0.00330487
-0.0031709
-0.00305222
-0.00294195
-0.00283819
-0.00274431
-0.00266525
-0.00260459
-0.00256396
-0.00254335
-0.00254119
-0.00255421
-0.00257755
-0.00260447
-0.0026255
-0.0026271
-0.00259018
-0.00248737
-0.00227944
-0.00191109
-0.00130448
-0.000370506
0.000900404
0.00217044
0.00282343
0.00222391
)
;

boundaryField
{
    floor
    {
        type            calculated;
        value           nonuniform List<scalar> 
36
(
0
0
0
0
0
0
0
0
0
0
0
0
0
0
0
0
0
0
0
-4.43091e-06
-1.15919e-05
-1.7574e-05
-2.25145e-05
-2.00115e-05
-1.83442e-05
-1.72419e-05
-2.22123e-06
-3.56625e-06
-4.08745e-06
-4.7525e-06
-3.39391e-06
-7.20551e-06
-1.02663e-05
-1.04456e-05
-1.30798e-05
-1.10977e-05
)
;
    }
    ceiling
    {
        type            calculated;
        value           nonuniform List<scalar> 
43
(
-4.09032e-05
-4.01837e-05
-3.94521e-05
-2.58385e-05
-1.97173e-05
-1.49592e-05
-1.08484e-05
-7.92608e-06
-5.90178e-06
-4.44875e-06
-3.48442e-06
-2.80269e-06
-2.33199e-06
-2.0115e-06
-1.77174e-06
-1.57556e-06
-1.41135e-06
-1.27856e-06
-1.18325e-06
-1.13155e-06
-1.12223e-06
-1.14564e-06
-1.18915e-06
-1.24225e-06
-1.29772e-06
-1.34876e-06
-1.39312e-06
-1.42983e-06
-1.45844e-06
-1.4786e-06
-1.48615e-06
-1.4778e-06
-1.44981e-06
-1.39667e-06
-1.30831e-06
-1.13118e-06
-9.3777e-07
-7.79341e-07
-6.83815e-07
1.72803e-07
7.1322e-06
4.39164e-06
-5.45447e-05
)
;
    }
    sWall
    {
        type            calculated;
        value           uniform -0.000238775;
    }
    nWall
    {
        type            calculated;
        value           nonuniform List<scalar> 6(-5.25526e-05 -6.33141e-05 -6.61716e-05 -7.96217e-05 -8.75454e-05 -0.000106556);
    }
    sideWalls
    {
        type            empty;
        value           nonuniform 0();
    }
    glass1
    {
        type            calculated;
        value           nonuniform List<scalar> 9(-5.95479e-05 -0.000161229 -0.00024746 -0.000321281 -0.000384183 -0.000437167 -0.000484011 -0.000540167 -0.000602752);
    }
    glass2
    {
        type            calculated;
        value           nonuniform List<scalar> 2(-0.000276055 -0.000304786);
    }
    sun
    {
        type            calculated;
        value           uniform 0;
    }
    Table_master
    {
        type            calculated;
        value           nonuniform List<scalar> 9(-1.53501e-07 -1.53661e-07 -1.53714e-07 -1.53745e-07 -1.53765e-07 -1.53777e-07 -1.53782e-07 -1.53774e-07 -1.5374e-07);
    }
    Table_slave
    {
        type            calculated;
        value           nonuniform List<scalar> 9(1.53362e-07 1.53356e-07 1.53314e-07 1.53283e-07 1.53268e-07 1.53265e-07 1.53276e-07 1.53317e-07 1.53402e-07);
    }
    inlet
    {
        type            calculated;
        value           uniform -0.0106792;
    }
    outlet
    {
        type            calculated;
        value           nonuniform List<scalar> 2(0.0120731 0.00358973);
    }
}


// ************************************************************************* //
