// -*- C++ -*-
// File generated by PyFoam - sorry for the ugliness

FoamFile
{
 version 2.0;
 format ascii;
 class volScalarField;
 location "300";
 object T;
}

dimensions [ 0 0 0 1 0 0 0 ];

internalField nonuniform List<scalar> 458
(
  304.991
  304.725
  304.721
  304.727
  304.732
  304.736
  304.74
  304.742
  304.744
  304.744
  304.743
  304.739
  304.734
  304.726
  304.716
  303.383
  303.401
  303.422
  303.407
  303.407
  303.413
  303.386
  303.357
  303.341
  303.333
  303.331
  303.329
  303.326
  303.333
  303.357
  303.412
  303.406
  303.388
  305.197
  304.806
  304.782
  304.791
  304.802
  304.81
  304.816
  304.821
  304.822
  304.821
  304.816
  304.805
  304.788
  304.763
  304.727
  304.691
  304.654
  304.564
  303.532
  303.567
  303.594
  303.596
  303.547
  303.529
  303.507
  303.486
  303.475
  303.473
  303.481
  303.509
  303.555
  303.606
  303.661
  303.611
  303.527
  303.441
  305.384
  304.896
  304.844
  304.852
  304.868
  304.883
  304.895
  304.904
  304.91
  304.912
  304.907
  304.895
  304.874
  304.84
  304.793
  304.735
  304.669
  304.611
  303.978
  303.915
  303.903
  303.914
  303.93
  303.624
  303.629
  303.664
  303.701
  303.742
  303.786
  303.836
  303.905
  304.016
  304.181
  304.133
  304.11
  304.197
  305.557
  305.008
  304.926
  304.922
  304.939
  304.958
  304.976
  304.991
  305.002
  305.009
  305.008
  304.998
  304.977
  304.942
  304.891
  304.823
  304.733
  304.62
  304.507
  304.41
  304.434
  304.503
  304.595
  304.675
  304.725
  304.731
  304.735
  304.739
  304.743
  304.746
  304.749
  304.747
  304.73
  304.635
  304.606
  304.583
  304.561
  305.718
  305.146
  305.053
  305.03
  305.034
  305.048
  305.066
  305.083
  305.098
  305.109
  305.113
  305.107
  305.09
  305.06
  305.017
  304.963
  304.902
  304.838
  304.781
  304.74
  304.734
  304.748
  304.769
  304.783
  304.791
  304.793
  304.796
  304.799
  304.804
  304.811
  304.818
  304.825
  304.828
  304.819
  304.822
  304.826
  304.81
  304.837
  304.834
  304.839
  305.866
  305.311
  305.248
  305.22
  305.198
  305.186
  305.187
  305.194
  305.203
  305.212
  305.216
  305.213
  305.199
  305.174
  305.136
  305.089
  305.035
  304.981
  304.932
  304.895
  304.873
  304.863
  304.857
  304.853
  304.849
  304.845
  304.843
  304.844
  304.847
  304.854
  304.864
  304.876
  304.889
  304.9
  304.912
  304.922
  304.927
  304.93
  304.892
  304.863
  306.008
  305.522
  305.531
  305.504
  305.447
  305.4
  305.368
  305.348
  305.336
  305.326
  305.322
  305.315
  305.302
  305.28
  305.247
  305.204
  305.156
  305.106
  305.059
  305.018
  304.986
  304.962
  304.944
  304.929
  304.915
  304.904
  304.894
  304.887
  304.884
  304.887
  304.895
  304.909
  304.924
  304.938
  304.949
  304.957
  304.961
  304.956
  304.935
  304.874
  306.205
  305.868
  305.835
  305.772
  305.694
  305.623
  305.566
  305.521
  305.487
  305.459
  305.435
  305.415
  305.395
  305.372
  305.343
  305.308
  305.267
  305.221
  305.176
  305.132
  305.096
  305.065
  305.038
  305.015
  304.993
  304.974
  304.955
  304.939
  304.925
  304.918
  304.918
  304.926
  304.938
  304.951
  304.964
  304.975
  304.984
  304.994
  305.004
  305.018
  306.479
  306.331
  305.969
  305.852
  305.777
  305.716
  305.664
  305.619
  305.58
  305.547
  305.52
  305.494
  305.469
  305.444
  305.417
  305.387
  305.353
  305.315
  305.276
  305.237
  305.2
  305.166
  305.136
  305.107
  305.081
  305.056
  305.031
  305.006
  304.983
  304.963
  304.949
  304.942
  304.942
  304.945
  304.949
  304.952
  304.956
  304.962
  304.976
  305.029
  304.287
  305.3
  305.539
  305.588
  305.595
  305.586
  305.569
  305.55
  305.531
  305.512
  305.494
  305.474
  305.453
  305.431
  305.405
  305.377
  305.347
  305.316
  305.284
  305.252
  305.222
  305.193
  305.165
  305.137
  305.11
  305.082
  305.053
  305.026
  305.001
  304.981
  304.967
  304.959
  304.955
  304.954
  304.953
  304.953
  304.953
  304.962
  304.502
  305.029
  305.257
  305.423
  305.496
  305.52
  305.524
  305.519
  305.509
  305.497
  305.485
  305.471
  305.456
  305.44
  305.422
  305.402
  305.381
  305.357
  305.332
  305.306
  305.28
  305.253
  305.227
  305.2
  305.173
  305.145
  305.117
  305.088
  305.06
  305.033
  305.01
  304.993
  304.982
  304.974
  304.968
  304.961
  304.954
  304.959
  305.681
  305.156
  304.584
  304.825
  305.163
  305.359
  305.447
  305.468
  305.473
  305.471
  305.465
  305.457
  305.447
  305.437
  305.427
  305.415
  305.403
  305.389
  305.375
  305.359
  305.342
  305.324
  305.304
  305.284
  305.262
  305.239
  305.216
  305.192
  305.166
  305.14
  305.113
  305.085
  305.06
  305.037
  305.018
  305
  304.984
  304.967
  304.948
  304.957
)
;

boundaryField
{
  floor
  {
    type wallHeatTransfer;
    Tinf uniform 305.2;
    alphaWall uniform 0.24;
    value nonuniform List<scalar> 36
(
  304.782
  303.856
  303.849
  303.86
  303.889
  303.934
  303.985
  303.995
  303.964
  303.926
  303.889
  303.861
  303.847
  303.843
  303.841
  303.841
  303.842
  303.833
  303.851
  303.851
  303.847
  304.36
  304.645
  304.875
  304.876
  304.884
  304.782
  304.755
  304.725
  304.675
  303.856
  304.675
  303.885
  304.683
  304.168
  304.59
)
;
  }
  ceiling
  {
    type wallHeatTransfer;
    Tinf uniform 303.2;
    alphaWall uniform 0.24;
    value nonuniform List<scalar> 43
(
  305.521
  305.07
  304.542
  304.76
  305.052
  305.224
  305.298
  305.308
  305.302
  305.291
  305.277
  305.263
  305.25
  305.237
  305.226
  305.214
  305.203
  305.191
  305.178
  305.164
  305.149
  305.132
  305.114
  305.095
  305.076
  305.055
  305.033
  305.011
  304.987
  304.963
  304.938
  304.913
  304.888
  304.866
  304.846
  304.828
  304.81
  304.788
  304.768
  304.79
  306.33
  306.203
  304.472
)
;
  }
  sWall
  {
    type wallHeatTransfer;
    Tinf uniform 315.2;
    alphaWall uniform 0.36;
    value uniform 306.577;
  }
  nWall
  {
    type wallHeatTransfer;
    Tinf uniform 307.2;
    alphaWall uniform 0.36;
    value nonuniform List<scalar> 6
(
  305.256
  305.261
  305.272
  305.227
  305.222
  305.262
)
;
  }
  sideWalls
  {
    type empty;
  }
  glass1
  {
    type wallHeatTransfer;
    Tinf uniform 315.2;
    alphaWall uniform 4.3;
    value nonuniform List<scalar> 9
(
  312.776
  311.841
  311.233
  310.797
  310.49
  310.273
  310.152
  310.268
  310.513
)
;
  }
  glass2
  {
    type wallHeatTransfer;
    Tinf uniform 307.2;
    alphaWall uniform 4.3;
    value nonuniform List<scalar> 2
(
  306.43
  306.371
)
;
  }
  sun
  {
    type wallHeatTransfer;
    Tinf uniform 305.2;
    alphaWall uniform 0.24;
    value nonuniform List<scalar> 14
(
  305.022
  304.794
  304.798
  304.803
  304.805
  304.808
  304.809
  304.81
  304.81
  304.81
  304.807
  304.804
  304.798
  304.791
)
;
  }
  Table_master
  {
    type zeroGradient;
  }
  Table_slave
  {
    type zeroGradient;
  }
  inlet
  {
    type fixedValue;
    value uniform 295.15;
  }
  outlet
  {
    type zeroGradient;
  }
} 	// ************************************************************************* //

