// -*- C++ -*-
// File generated by PyFoam - sorry for the ugliness

FoamFile
{
 version 2.0;
 format ascii;
 class volVectorField;
 location "300";
 object U;
}

dimensions [ 0 1 -1 0 0 0 0 ];

internalField nonuniform List<vector> 458
(
  (0.0297209 0.0896686 0)
  (-0.174533 0.0280123 0)
  (-0.204119 0.0193345 0)
  (-0.238376 0.012652 0)
  (-0.263074 0.00541638 0)
  (-0.276847 -0.00237774 0)
  (-0.277388 -0.0109467 0)
  (-0.262762 -0.0205728 0)
  (-0.232857 -0.0305487 0)
  (-0.189549 -0.0391227 0)
  (-0.137657 -0.0444941 0)
  (-0.0840507 -0.0450889 0)
  (-0.036157 -0.0390294 0)
  (0.00595851 -0.0169552 0)
  (-0.00169985 0.0140243 0)
  (-0.0134026 0.0111691 0)
  (-0.0380752 -0.0166442 0)
  (-0.0153228 -0.0290071 0)
  (0.0130467 -0.0260831 0)
  (0.0339723 -0.0188009 0)
  (0.0493224 -0.0101681 0)
  (0.0587193 -0.00559216 0)
  (0.0630677 -0.00395309 0)
  (0.0648448 -0.00335116 0)
  (0.0657762 -0.00298064 0)
  (0.0663376 -0.00268539 0)
  (0.0665072 -0.00239433 0)
  (0.0660964 -0.001916 0)
  (0.0646119 -0.000896843 0)
  (0.0609564 0.00113544 0)
  (0.0538998 0.0035267 0)
  (0.0464992 0.0062613 0)
  (-0.00839594 0.0228477 0)
  (0.206221 0.183675 0)
  (-0.161818 0.0742581 0)
  (-0.165301 0.0589106 0)
  (-0.200922 0.0456636 0)
  (-0.225795 0.0306719 0)
  (-0.240348 0.0134705 0)
  (-0.24231 -0.00663699 0)
  (-0.229632 -0.0294024 0)
  (-0.202922 -0.0519294 0)
  (-0.164588 -0.0699055 0)
  (-0.119606 -0.0796599 0)
  (-0.0740805 -0.0789104 0)
  (-0.0334177 -0.0663419 0)
  (0.00265323 -0.0386511 0)
  (0.0286386 -0.00589199 0)
  (0.0526629 0.0119992 0)
  (0.0583621 0.0355114 0)
  (-0.00678799 0.0690462 0)
  (0.0588995 0.0447321 0)
  (0.010496 -0.0226754 0)
  (0.0271825 -0.0389432 0)
  (0.0416494 -0.0370122 0)
  (0.0544813 -0.0286952 0)
  (0.0610909 -0.0129939 0)
  (0.062851 -0.00331646 0)
  (0.0629777 0.000304669 0)
  (0.0631858 0.00160577 0)
  (0.0635407 0.0023137 0)
  (0.0637881 0.00280995 0)
  (0.0638821 0.0033073 0)
  (0.0637908 0.00411835 0)
  (0.0630634 0.00606508 0)
  (0.0595763 0.0113481 0)
  (0.0507301 0.0162574 0)
  (0.0469638 0.0208385 0)
  (-0.0507519 0.0488889 0)
  (0.369193 0.275024 0)
  (-0.176803 0.117693 0)
  (-0.124307 0.095166 0)
  (-0.15914 0.0718021 0)
  (-0.181866 0.0470282 0)
  (-0.196273 0.0190449 0)
  (-0.199147 -0.0134558 0)
  (-0.187105 -0.0496577 0)
  (-0.16208 -0.0845052 0)
  (-0.127624 -0.110583 0)
  (-0.0889939 -0.122799 0)
  (-0.0515297 -0.119101 0)
  (-0.0187493 -0.0998442 0)
  (0.0103057 -0.0659056 0)
  (0.0330339 -0.0327631 0)
  (0.0473162 -0.00915428 0)
  (0.0505325 0.0188205 0)
  (-0.0102918 0.0668272 0)
  (0.117229 -0.00633532 0)
  (0.0732469 -0.0332535 0)
  (0.0667207 -0.0440101 0)
  (0.069964 -0.0438729 0)
  (0.0747256 -0.0398674 0)
  (0.0758598 -0.029715 0)
  (0.0659811 -0.0191906 0)
  (0.0584488 -0.0135182 0)
  (0.0554813 -0.0103631 0)
  (0.0545021 -0.00833576 0)
  (0.054001 -0.00696565 0)
  (0.0537943 -0.00594519 0)
  (0.0543831 -0.00473858 0)
  (0.0567578 -0.00123715 0)
  (0.0556288 0.0153162 0)
  (0.0444017 0.026736 0)
  (0.0513575 0.0356225 0)
  (-0.0908666 0.0744541 0)
  (0.51829 0.348562 0)
  (-0.210819 0.155573 0)
  (-0.0801248 0.126441 0)
  (-0.113492 0.0949648 0)
  (-0.130683 0.0635772 0)
  (-0.142817 0.0272743 0)
  (-0.144803 -0.0170662 0)
  (-0.131095 -0.0672899 0)
  (-0.107028 -0.113883 0)
  (-0.0774308 -0.146309 0)
  (-0.0468436 -0.159423 0)
  (-0.0192522 -0.152357 0)
  (0.00480881 -0.126827 0)
  (0.0248697 -0.0895161 0)
  (0.0419927 -0.0505009 0)
  (0.0552173 -0.015369 0)
  (0.0695557 0.019576 0)
  (0.0709328 0.0593571 0)
  (0.111488 0.0606715 0)
  (0.10848 -0.00123429 0)
  (0.0940304 -0.0294269 0)
  (0.085807 -0.0390127 0)
  (0.0793932 -0.039924 0)
  (0.0716351 -0.0351913 0)
  (0.0703636 -0.0211078 0)
  (0.0803885 -0.013632 0)
  (0.0884563 -0.00964701 0)
  (0.0926362 -0.00722493 0)
  (0.0945729 -0.0052588 0)
  (0.0946114 -0.00319529 0)
  (0.0917944 -0.000622641 0)
  (0.0848183 0.00290247 0)
  (0.0717066 0.00801779 0)
  (0.0560223 0.0254239 0)
  (0.0413307 0.0410135 0)
  (0.0589439 0.0544232 0)
  (-0.123078 0.0958124 0)
  (0.650059 0.405163 0)
  (-0.254778 0.18566 0)
  (-0.0349895 0.14506 0)
  (-0.0651924 0.109054 0)
  (-0.0737063 0.0744243 0)
  (-0.0808802 0.033308 0)
  (-0.0775755 -0.0206985 0)
  (-0.0590707 -0.084498 0)
  (-0.0370478 -0.139367 0)
  (-0.01517 -0.173885 0)
  (0.00443815 -0.184796 0)
  (0.019657 -0.173035 0)
  (0.031617 -0.1444 0)
  (0.0417471 -0.105191 0)
  (0.0509322 -0.0636092 0)
  (0.059634 -0.0254874 0)
  (0.0715175 0.00756386 0)
  (0.085533 0.0254054 0)
  (0.0995157 0.00343401 0)
  (0.0983266 -0.0190037 0)
  (0.0903726 -0.0291316 0)
  (0.0804653 -0.032508 0)
  (0.0708576 -0.0317118 0)
  (0.0624964 -0.0263085 0)
  (0.0593308 -0.0144343 0)
  (0.0615561 -0.00738883 0)
  (0.0645244 -0.00441765 0)
  (0.0668214 -0.00275615 0)
  (0.0687181 -0.000715944 0)
  (0.0701815 0.00251086 0)
  (0.0700988 0.00719345 0)
  (0.0678031 0.0136649 0)
  (0.0628768 0.0226132 0)
  (0.0561658 0.0369716 0)
  (0.0459612 0.0531297 0)
  (0.0708133 0.0720868 0)
  (-0.00665066 0.102026 0)
  (0.0553758 0.146908 0)
  (-0.0809656 0.0710009 0)
  (-0.273757 -0.000781625 0)
  (0.748883 0.451783 0)
  (-0.299884 0.205015 0)
  (0.00159737 0.142534 0)
  (-0.0161034 0.112587 0)
  (-0.0139748 0.0798441 0)
  (-0.0150873 0.0375527 0)
  (0.00417034 -0.030421 0)
  (0.0275257 -0.104642 0)
  (0.043921 -0.159242 0)
  (0.0546258 -0.189436 0)
  (0.0598128 -0.195537 0)
  (0.0605877 -0.180595 0)
  (0.0587912 -0.14968 0)
  (0.0561554 -0.109541 0)
  (0.0541941 -0.0678554 0)
  (0.0541577 -0.0310759 0)
  (0.0583372 -0.00305255 0)
  (0.0669227 0.0103098 0)
  (0.0729891 0.00268536 0)
  (0.0714969 -0.00863275 0)
  (0.0644288 -0.0172331 0)
  (0.0552615 -0.0217112 0)
  (0.0463429 -0.0223704 0)
  (0.0389393 -0.0193711 0)
  (0.0349429 -0.0133066 0)
  (0.0347234 -0.00925703 0)
  (0.0363946 -0.00752449 0)
  (0.0388751 -0.00641585 0)
  (0.0419153 -0.00450584 0)
  (0.0453578 -0.000719337 0)
  (0.0488363 0.0054809 0)
  (0.0511682 0.0139807 0)
  (0.0526004 0.0248812 0)
  (0.0542206 0.0388316 0)
  (0.0540413 0.0546827 0)
  (0.0758349 0.074892 0)
  (0.0629066 0.0880412 0)
  (0.0978922 0.0946885 0)
  (0.115716 0.0561525 0)
  (-0.134336 -0.0281455 0)
  (0.806078 0.493884 0)
  (-0.324506 0.188166 0)
  (0.0320324 0.0909372 0)
  (0.0445668 0.0934289 0)
  (0.0544298 0.0731112 0)
  (0.0645467 0.023699 0)
  (0.100181 -0.0542779 0)
  (0.122278 -0.122539 0)
  (0.130019 -0.168907 0)
  (0.126717 -0.191132 0)
  (0.115192 -0.191 0)
  (0.0985156 -0.1722 0)
  (0.0797949 -0.139671 0)
  (0.0616782 -0.0999703 0)
  (0.0464824 -0.0601651 0)
  (0.0360406 -0.0268683 0)
  (0.0317084 -0.0038729 0)
  (0.0333334 0.00642916 0)
  (0.035089 0.00363436 0)
  (0.0334325 -0.00369748 0)
  (0.0282385 -0.0102392 0)
  (0.0212424 -0.0140745 0)
  (0.0141316 -0.0151965 0)
  (0.00816854 -0.0140451 0)
  (0.00471794 -0.0115022 0)
  (0.00413979 -0.00991701 0)
  (0.00544718 -0.00959128 0)
  (0.0078827 -0.00949429 0)
  (0.0112626 -0.00850607 0)
  (0.0156492 -0.00550978 0)
  (0.0218934 0.000650078 0)
  (0.0288746 0.00968319 0)
  (0.035756 0.0204623 0)
  (0.0439827 0.0328446 0)
  (0.0524569 0.0459632 0)
  (0.0722887 0.0619413 0)
  (0.0856267 0.0675902 0)
  (0.117387 0.0609742 0)
  (0.160555 0.0500249 0)
  (-0.0201169 0.0937861 0)
  (0.912906 0.494778 0)
  (-0.0679489 0.167754 0)
  (0.114159 0.0213869 0)
  (0.172073 0.00911122 0)
  (0.175111 -0.00548165 0)
  (0.194892 -0.0514994 0)
  (0.223471 -0.0990942 0)
  (0.231336 -0.139295 0)
  (0.219547 -0.165446 0)
  (0.193845 -0.174333 0)
  (0.159502 -0.166508 0)
  (0.121407 -0.14463 0)
  (0.0836094 -0.112259 0)
  (0.0492839 -0.0752583 0)
  (0.0215373 -0.0400261 0)
  (0.00298709 -0.013427 0)
  (-0.00588348 0.00165111 0)
  (-0.00635485 0.0064973 0)
  (-0.00586904 0.0043162 0)
  (-0.0071746 -0.000613664 0)
  (-0.0106618 -0.00513849 0)
  (-0.0157082 -0.008085 0)
  (-0.0209555 -0.00950692 0)
  (-0.0253681 -0.00985835 0)
  (-0.0281247 -0.00982175 0)
  (-0.0291633 -0.0102809 0)
  (-0.0290826 -0.0112644 0)
  (-0.028341 -0.0122576 0)
  (-0.0270037 -0.0126681 0)
  (-0.0248015 -0.0118797 0)
  (-0.0209178 -0.00914174 0)
  (-0.0127155 -0.00364117 0)
  (-0.00222455 0.00414735 0)
  (0.00914541 0.0123753 0)
  (0.0207458 0.018825 0)
  (0.0377479 0.0253495 0)
  (0.0533166 0.0204098 0)
  (0.0772737 0.00423448 0)
  (0.142548 0.0467435 0)
  (-0.420469 0.208879 0)
  (1.05935 0.440366 0)
  (0.513778 0.295197 0)
  (0.527164 0.241008 0)
  (0.52463 0.169138 0)
  (0.486607 0.105167 0)
  (0.450135 0.0407138 0)
  (0.403864 -0.024996 0)
  (0.350357 -0.0785034 0)
  (0.291518 -0.111332 0)
  (0.229395 -0.122496 0)
  (0.166857 -0.116031 0)
  (0.107304 -0.0967835 0)
  (0.053346 -0.0683881 0)
  (0.00767853 -0.0370522 0)
  (-0.0248226 -0.0114742 0)
  (-0.0396896 0.000416745 0)
  (-0.0449177 0.00527486 0)
  (-0.0452522 0.00618399 0)
  (-0.0451182 0.00442582 0)
  (-0.0461875 0.00146593 0)
  (-0.0484489 -0.00139724 0)
  (-0.0520338 -0.00362333 0)
  (-0.0559927 -0.00529863 0)
  (-0.0597033 -0.00663255 0)
  (-0.0628191 -0.00788701 0)
  (-0.0654899 -0.00925678 0)
  (-0.0681974 -0.0105813 0)
  (-0.0714196 -0.0114639 0)
  (-0.075592 -0.0113774 0)
  (-0.0812342 -0.00964499 0)
  (-0.0890259 -0.00541993 0)
  (-0.0996139 0.00214702 0)
  (-0.11115 0.0129146 0)
  (-0.126594 0.0270126 0)
  (-0.151261 0.0445346 0)
  (-0.187772 0.0644208 0)
  (-0.23774 0.0827687 0)
  (-0.292128 0.0962149 0)
  (-0.364293 0.103381 0)
  (-0.638186 0.10385 0)
  (0.241826 0.0359581 0)
  (0.306037 0.0896192 0)
  (0.319159 0.0615619 0)
  (0.293804 0.0126406 0)
  (0.268083 -0.0283196 0)
  (0.231263 -0.0544058 0)
  (0.184263 -0.0667598 0)
  (0.130329 -0.066511 0)
  (0.073906 -0.0564548 0)
  (0.0187737 -0.0384343 0)
  (-0.0325773 -0.0144036 0)
  (-0.0614521 -0.000982709 0)
  (-0.0756198 0.00450833 0)
  (-0.0801069 0.00596968 0)
  (-0.081012 0.00626315 0)
  (-0.0805802 0.00572138 0)
  (-0.0803389 0.00439279 0)
  (-0.0810962 0.00256288 0)
  (-0.0829302 0.000692958 0)
  (-0.0854669 -0.000997413 0)
  (-0.08862 -0.00250343 0)
  (-0.0920992 -0.00381578 0)
  (-0.0957175 -0.00491353 0)
  (-0.0995997 -0.00570649 0)
  (-0.103947 -0.00599088 0)
  (-0.108872 -0.00544693 0)
  (-0.114336 -0.00366754 0)
  (-0.12012 -0.000198598 0)
  (-0.125691 0.00540597 0)
  (-0.130129 0.0135883 0)
  (-0.13402 0.0254982 0)
  (-0.137518 0.041724 0)
  (-0.14169 0.0615338 0)
  (-0.147118 0.0814383 0)
  (-0.15007 0.0918108 0)
  (-0.134815 0.0710469 0)
  (-0.100315 -0.0238211 0)
  (-0.282661 -0.208346 0)
  (0.127599 0.310138 0)
  (0.000730764 0.183348 0)
  (0.0226833 0.0944172 0)
  (0.0325924 0.0387615 0)
  (0.0305055 0.00757326 0)
  (0.0255414 -0.0102414 0)
  (-0.000468585 -0.0156347 0)
  (-0.036261 -0.00905652 0)
  (-0.0708338 0.00070483 0)
  (-0.0965491 0.00826295 0)
  (-0.110027 0.0116612 0)
  (-0.113452 0.0110477 0)
  (-0.1137 0.00991962 0)
  (-0.112483 0.00884963 0)
  (-0.110916 0.00825041 0)
  (-0.109398 0.00784698 0)
  (-0.108323 0.0073475 0)
  (-0.107927 0.00667682 0)
  (-0.108183 0.00593415 0)
  (-0.108897 0.0051936 0)
  (-0.109899 0.00441973 0)
  (-0.111127 0.00357065 0)
  (-0.112692 0.00271114 0)
  (-0.114608 0.00200098 0)
  (-0.116815 0.00157918 0)
  (-0.119136 0.00162433 0)
  (-0.121268 0.00238286 0)
  (-0.12273 0.00418977 0)
  (-0.122887 0.00766537 0)
  (-0.120678 0.0136811 0)
  (-0.114613 0.0232309 0)
  (-0.103313 0.0372551 0)
  (-0.0865081 0.0556759 0)
  (-0.0650215 0.0750408 0)
  (-0.0409408 0.0884406 0)
  (-0.00427778 0.078416 0)
  (0.145581 0.00408669 0)
  (-0.208883 -0.122197 0)
  (-0.407456 -0.505587 0)
  (-0.626356 -0.144712 0)
  (-0.446938 0.162094 0)
  (-0.366145 0.0447755 0)
  (-0.236141 -0.00776245 0)
  (-0.181225 -0.0338512 0)
  (-0.160713 -0.0397318 0)
  (-0.157732 -0.0337062 0)
  (-0.162155 -0.0244512 0)
  (-0.165831 -0.0166277 0)
  (-0.164288 -0.0111605 0)
  (-0.159423 -0.00767024 0)
  (-0.152554 -0.00594579 0)
  (-0.145526 -0.00563501 0)
  (-0.13935 -0.00550371 0)
  (-0.133919 -0.0054115 0)
  (-0.128965 -0.00532486 0)
  (-0.124311 -0.00546161 0)
  (-0.120023 -0.00600889 0)
  (-0.116287 -0.00699397 0)
  (-0.113273 -0.00828373 0)
  (-0.111089 -0.00965992 0)
  (-0.109777 -0.0109083 0)
  (-0.10931 -0.011865 0)
  (-0.109596 -0.0124272 0)
  (-0.110458 -0.0126166 0)
  (-0.11165 -0.0123861 0)
  (-0.112835 -0.0116497 0)
  (-0.113546 -0.0102624 0)
  (-0.113144 -0.00799553 0)
  (-0.110501 -0.00466302 0)
  (-0.103756 0.000109569 0)
  (-0.0903145 0.00695114 0)
  (-0.0679724 0.01672 0)
  (-0.0368557 0.0300889 0)
  (0.011932 0.0480445 0)
  (0.06022 0.0522456 0)
  (0.105278 0.0360096 0)
  (0.168145 0.0011521 0)
  (-0.207298 -0.0600298 0)
)
;

boundaryField
{
  floor
  {
    type noSlip;
  }
  ceiling
  {
    type noSlip;
  }
  sWall
  {
    type noSlip;
  }
  nWall
  {
    type noSlip;
  }
  sideWalls
  {
    type empty;
  }
  glass1
  {
    type noSlip;
  }
  glass2
  {
    type noSlip;
  }
  sun
  {
    type noSlip;
  }
  Table_master
  {
    type noSlip;
  }
  Table_slave
  {
    type noSlip;
  }
  inlet
  {
    type fixedValue;
    value uniform (0.46194 -0.191342 0);
  }
  outlet
  {
    type zeroGradient;
  }
} 	// ************************************************************************* //

