/*--------------------------------*- C++ -*----------------------------------*\
  =========                 |
  \\      /  F ield         | OpenFOAM: The Open Source CFD Toolbox
   \\    /   O peration     | Website:  https://openfoam.org
    \\  /    A nd           | Version:  6
     \\/     M anipulation  |
\*---------------------------------------------------------------------------*/
FoamFile
{
    version     2.0;
    format      ascii;
    class       volScalarField;
    location    "41199.9999994064201";
    object      alphat;
}
// * * * * * * * * * * * * * * * * * * * * * * * * * * * * * * * * * * * * * //

dimensions      [1 -1 -1 0 0 0 0];

internalField   nonuniform List<scalar> 
778
(
0.00104098
0.00111055
0.00110658
0.00115465
0.0011987
0.0012387
0.00127595
0.00131185
0.00134799
0.00138639
0.001423
0.00145777
0.00149201
0.00152885
0.00156728
0.00073683
0.00105525
0.00106374
0.00103794
0.000994838
0.000937328
0.000880046
0.000827263
0.000779652
0.000736945
0.000698885
0.000664699
0.000633561
0.0006045
0.000576222
0.000546654
0.000522115
0.000472592
0.00152464
0.00300726
0.00263926
0.00304628
0.0033417
0.00365494
0.00396743
0.00425542
0.00448722
0.00462212
0.00470142
0.00466872
0.00443583
0.00385904
0.00281852
0.001716
0.00163613
0.00156616
0.00131873
0.00224614
0.00311277
0.00362427
0.00364789
0.00287946
0.00246253
0.00217356
0.00195438
0.00178012
0.00163146
0.00149998
0.00137761
0.00125788
0.00115042
0.00105775
0.00119174
0.000599156
0.00193409
0.0041987
0.0031135
0.00445313
0.00497579
0.00541817
0.00581999
0.00617365
0.00647321
0.00670799
0.0069355
0.00717484
0.00739472
0.00752554
0.00743869
0.00681116
0.00498205
0.00192119
0.00166382
0.00355985
0.00496735
0.00563233
0.00512146
0.00135135
0.00117495
0.00103892
0.000932524
0.000847886
0.000779582
0.000723868
0.000678543
0.000643196
0.000707223
0.000831999
0.00131817
0.000681623
0.00232902
0.00565819
0.00297923
0.00500692
0.00578043
0.00619433
0.00649868
0.00672385
0.00689192
0.00702811
0.00722188
0.00754923
0.00802686
0.00862762
0.00923191
0.00953028
0.00895058
0.00668072
0.0019137
0.00443102
0.00659449
0.00769328
0.00796351
0.00679758
0.00153911
0.0013998
0.00129198
0.00120233
0.00112596
0.00105739
0.000992755
0.00092856
0.000859206
0.000802802
0.000832439
0.00142806
0.000750381
0.00271826
0.00749014
0.00300556
0.00475972
0.00594881
0.00630148
0.00642937
0.00643415
0.00637016
0.00631358
0.00639474
0.00671271
0.00729612
0.00812253
0.00908168
0.00996618
0.0105282
0.0105232
0.0094452
0.00961155
0.00983331
0.00986473
0.00966378
0.00904444
0.007197
0.00621621
0.00554448
0.00499855
0.00446337
0.00394512
0.00343816
0.00293193
0.00241199
0.00185252
0.00141332
0.00141326
0.00111764
0.000895275
0.00119281
0.00113633
0.00310118
0.00954026
0.00353808
0.00401378
0.0056996
0.00609067
0.00605891
0.00584044
0.00552843
0.00527126
0.00526559
0.00559853
0.00626287
0.00722059
0.00834245
0.00946452
0.0104201
0.0110315
0.0111441
0.0110336
0.0108389
0.0105616
0.0102045
0.00974982
0.00908649
0.0084476
0.00786768
0.00730682
0.00670148
0.00605533
0.00536538
0.00462582
0.003832
0.00298971
0.00222653
0.00167163
0.00129781
0.00146689
0.00256431
0.00135601
0.00349193
0.0114355
0.0047145
0.00328814
0.00512137
0.00576102
0.00568925
0.00533574
0.00482344
0.00437312
0.0043603
0.00478052
0.00554055
0.00661072
0.00782933
0.00903694
0.0100773
0.0108232
0.0111673
0.0111422
0.0108984
0.0105282
0.0101037
0.00968001
0.0092701
0.00889399
0.00854067
0.00816324
0.00770743
0.00715901
0.00651
0.00575741
0.00490428
0.00397207
0.0030597
0.00220873
0.00162583
0.00146162
0.00261306
0.00160407
0.00382768
0.0128684
0.00642708
0.00313042
0.00405736
0.00510784
0.0052533
0.00496238
0.00435783
0.00374462
0.00388363
0.00443935
0.00528932
0.00639201
0.0076577
0.00892163
0.0100005
0.0107507
0.0110922
0.011049
0.0107338
0.0102682
0.00976702
0.00932238
0.00897954
0.00873462
0.00854356
0.00833553
0.00804586
0.00764053
0.00710376
0.00643258
0.0056337
0.00473048
0.00378948
0.00283385
0.0019724
0.00133149
0.00385495
0.00212468
0.00392891
0.0121733
0.00795005
0.00404613
0.00274954
0.00337116
0.00394504
0.00399245
0.00352498
0.00342545
0.00378116
0.00443459
0.00535401
0.00652413
0.00785129
0.00915424
0.0102287
0.0109199
0.0111628
0.0109963
0.0105386
0.00993829
0.0093426
0.00886725
0.0085655
0.0084175
0.00835055
0.00827078
0.00810429
0.00781149
0.00737681
0.00679892
0.00608552
0.00525527
0.00434154
0.00331
0.00189366
0.00170284
0.00611715
0.00239816
0.00384946
0.00981106
0.00820745
0.00555232
0.00366681
0.0028393
0.00269016
0.00281745
0.00305351
0.00342991
0.0039645
0.00470041
0.00570161
0.00696495
0.00836576
0.00968735
0.0107045
0.0112632
0.0113198
0.0109424
0.0102803
0.00951906
0.00883981
0.00837429
0.00816095
0.00813645
0.00818337
0.00818297
0.0080755
0.00783868
0.00746524
0.00695518
0.00631291
0.00554286
0.00462218
0.00332058
0.00145281
0.00308835
0.00578187
0.00244349
0.00360585
0.00838455
0.00793384
0.00635228
0.00488895
0.00393568
0.00346426
0.00335774
0.00355306
0.00391298
0.00443637
0.00521454
0.00632255
0.0077104
0.00918437
0.0104778
0.0113518
0.0116725
0.0114381
0.0107653
0.00985549
0.00894585
0.00825449
0.00790702
0.00786724
0.00798274
0.00809954
0.00810169
0.00798844
0.00775934
0.00741023
0.00693689
0.00633159
0.00556464
0.00452112
0.00297129
0.00158251
0.00328713
0.00644508
0.00247643
0.00328325
0.00755964
0.00765247
0.00672301
0.00571958
0.00496379
0.00451855
0.00435871
0.00439905
0.00461711
0.00509902
0.00597078
0.00725532
0.00879592
0.0103027
0.0114644
0.0120552
0.0119943
0.0113508
0.0103139
0.00916294
0.00820146
0.00765493
0.00754553
0.00764442
0.00780021
0.00790144
0.00787272
0.00774046
0.00750774
0.00716818
0.00670744
0.00608272
0.00519111
0.00382177
0.00226449
0.00186373
0.00375355
0.00651684
0.0026125
0.00299376
0.00676243
0.00730677
0.00686771
0.00622388
0.00568269
0.00532253
0.0051466
0.00509513
0.00528245
0.00589607
0.00703852
0.00859706
0.0102678
0.011676
0.012511
0.0126145
0.0120027
0.0108525
0.00945064
0.00818585
0.00737018
0.00700939
0.00697112
0.0070882
0.00723817
0.00732821
0.00729722
0.00716013
0.00692089
0.00656993
0.00607177
0.00531166
0.00405843
0.00248104
0.00180674
0.00236495
0.00427566
0.00665777
0.00256177
0.00300391
0.00671267
0.00746531
0.00695015
0.00642908
0.00600223
0.00569446
0.00549595
0.00548982
0.005944
0.00702812
0.00865045
0.0104817
0.0120957
0.0131156
0.0133225
0.0126996
0.0113994
0.0097555
0.00816382
0.00700506
0.00631906
0.00600559
0.005952
0.00604642
0.00617999
0.00625954
0.00622348
0.00606645
0.00579901
0.00541182
0.00485007
0.00396388
0.00271611
0.00185127
0.00200879
0.00294817
0.00440645
0.00568675
0.00239869
0.0027099
0.00282052
0.00416496
0.00489666
0.00512415
0.00512944
0.00508199
0.00517941
0.00581085
0.00715795
0.00905784
0.011112
0.0128687
0.0139491
0.0141306
0.0133744
0.0118715
0.00991774
0.00805548
0.00659237
0.00560932
0.00505412
0.00481635
0.00476824
0.00480909
0.0048574
0.00484535
0.00473327
0.00450606
0.00419648
0.00382231
0.00337626
0.00281576
0.00219499
0.00190122
0.00229237
0.00327476
0.00447022
0.00522014
0.00229288
0.000963485
0.00173699
0.00266637
0.00341406
0.00428312
0.00575165
0.00791318
0.0103157
0.0125074
0.0141486
0.0150039
0.0149164
0.0138881
0.0120326
0.00983056
0.00774781
0.00609458
0.00499267
0.0043962
0.00411757
0.00399481
0.00393549
0.00388484
0.00380191
0.00366045
0.00346106
0.00322587
0.00299296
0.00278994
0.00262058
0.00246964
0.00233561
0.00231767
0.00266114
0.00353702
0.00478805
0.00600667
0.00239193
0.00178738
0.00247179
0.00359871
0.00560804
0.00832707
0.0110471
0.0131473
0.0146653
0.0155903
0.0158548
0.0153335
0.013899
0.0117683
0.00935088
0.00712778
0.00546343
0.00448984
0.00402788
0.00382854
0.00374233
0.00369905
0.0036608
0.00360225
0.00350938
0.00338535
0.00325096
0.00313245
0.00304849
0.00300296
0.00298807
0.00299755
0.00304193
0.00316769
0.00348429
0.00420453
0.0057679
0.00645229
0.00253788
0.00323753
0.00787145
0.00726896
0.00650422
0.0082497
0.0109741
0.013264
0.0148069
0.0156228
0.0158287
0.015524
0.0146549
0.0131555
0.0110655
0.00866945
0.00649294
0.00502016
0.00427157
0.00395927
0.00384997
0.00383122
0.00384948
0.00387219
0.00387737
0.00385464
0.00380742
0.00375017
0.00370002
0.00366852
0.00365975
0.0036753
0.00371907
0.00380137
0.0039452
0.00419365
0.00462846
0.00542136
0.00727921
0.00737238
0.0026245
0.00309493
0.00598263
0.00772837
0.00989295
0.0109779
0.0120883
0.0127287
0.0128769
0.0126276
0.0120469
0.0111558
0.00995121
0.00847099
0.00687852
0.00545172
0.00444223
0.0038747
0.0036057
0.00351148
0.00352192
0.00359408
0.00369412
0.00379309
0.00387021
0.00391712
0.00393853
0.0039469
0.00395411
0.00396642
0.00398621
0.0040192
0.00408054
0.00419763
0.00440583
0.00474111
0.0052434
0.00596133
0.00729633
0.00775363
0.00269483
0.00289511
0.00248117
0.00246887
0.00254095
0.00260042
0.00252296
0.00237351
0.00220032
0.00202735
0.00186221
0.00170522
0.00155729
0.00142533
0.00132264
0.0012614
0.00123491
0.00123046
0.00123929
0.00125543
0.00127508
0.00129577
0.00131606
0.00133532
0.00135368
0.00137189
0.00139117
0.00141303
0.00143917
0.00147173
0.00151367
0.00156916
0.001643
0.00173905
0.00185798
0.00199676
0.00215098
0.00231764
0.0024952
0.00267289
0.00250392
)
;

boundaryField
{
    floor
    {
        type            compressible::alphatWallFunction;
        Prt             0.85;
        value           nonuniform List<scalar> 
36
(
0.000219878
0.000104484
0.000149919
0.000151106
0.000147494
0.000141437
0.000133308
0.000125152
0.000117581
0.000110703
0.000104491
9.89188e-05
9.38823e-05
8.92674e-05
8.49355e-05
8.06956e-05
7.62351e-05
7.25107e-05
6.49271e-05
6.49263e-05
8.4137e-05
9.638e-05
0.00010645
0.000127327
0.000169029
0.000161218
0.000219875
0.000239671
0.000229063
0.000219722
0.000104483
0.00021972
0.000186299
0.000266674
0.000232738
0.000265695
)
;
    }
    ceiling
    {
        type            compressible::alphatWallFunction;
        Prt             0.85;
        value           nonuniform List<scalar> 
43
(
0.000391226
0.000338966
0.000337406
0.000346579
0.000354134
0.000344337
0.000325312
0.000303093
0.000280711
0.000259149
0.000238461
0.000218773
0.000201033
0.000187087
0.000178696
0.000175049
0.000174427
0.000175633
0.00017785
0.000180548
0.00018339
0.000186173
0.000188811
0.00019132
0.000193801
0.000196419
0.000199376
0.000202898
0.000207264
0.00021286
0.000220226
0.000229987
0.000242637
0.000258246
0.000276385
0.000296435
0.00031796
0.000340711
0.000363293
0.000341832
0.000368272
0.000382178
0.000248616
)
;
    }
    sWall
    {
        type            compressible::alphatWallFunction;
        Prt             0.85;
        value           nonuniform List<scalar> 9(0.000507603 0.000477886 0.000438216 0.000402282 0.000403537 0.000366698 0.000431925 0.000414294 0.000389475);
    }
    nWall
    {
        type            compressible::alphatWallFunction;
        Prt             0.85;
        value           nonuniform List<scalar> 
14
(
0.00016077
0.000190913
0.000224299
0.000333608
0.000337836
0.000354973
0.000347937
0.000327412
0.00031419
0.000327525
0.000345601
0.000356531
0.000365319
0.000341139
)
;
    }
    sideWalls
    {
        type            empty;
    }
    glass1
    {
        type            compressible::alphatWallFunction;
        Prt             0.85;
        value           nonuniform List<scalar> 9(0.000143926 0.000209131 0.000262685 0.00031329 0.000362359 0.000409979 0.000457987 0.000498846 0.000511213);
    }
    glass2
    {
        type            compressible::alphatWallFunction;
        Prt             0.85;
        value           nonuniform List<scalar> 2(0.000290424 0.000325407);
    }
    sun
    {
        type            compressible::alphatWallFunction;
        Prt             0.85;
        value           nonuniform List<scalar> 
14
(
0.00014796
0.000157647
0.000157094
0.000163765
0.000169852
0.000175358
0.000180466
0.000185374
0.000190299
0.000195515
0.000200473
0.000205168
0.000209781
0.000214729
)
;
    }
    Table_master
    {
        type            compressible::alphatWallFunction;
        Prt             0.85;
        value           nonuniform List<scalar> 9(0.00019101 0.000166822 0.000147885 0.000132875 0.000120789 0.000110932 0.000102815 9.6156e-05 9.09253e-05);
    }
    Table_slave
    {
        type            compressible::alphatWallFunction;
        Prt             0.85;
        value           nonuniform List<scalar> 9(0.000216372 0.000197594 0.000182916 0.000170606 0.000160036 0.000150477 0.000141399 0.000132315 0.000122416);
    }
    inlet
    {
        type            fixedValue;
        value           uniform 1.94e-05;
    }
    outlet
    {
        type            zeroGradient;
    }
}


// ************************************************************************* //
