/*--------------------------------*- C++ -*----------------------------------*\
  =========                 |
  \\      /  F ield         | OpenFOAM: The Open Source CFD Toolbox
   \\    /   O peration     | Website:  https://openfoam.org
    \\  /    A nd           | Version:  6
     \\/     M anipulation  |
\*---------------------------------------------------------------------------*/
FoamFile
{
    version     2.0;
    format      ascii;
    class       volScalarField;
    location    "41199.9999994064201";
    object      epsilon;
}
// * * * * * * * * * * * * * * * * * * * * * * * * * * * * * * * * * * * * * //

dimensions      [0 2 -3 0 0 0 0];

internalField   nonuniform List<scalar> 
778
(
0.000253116
0.000306363
0.000303042
0.000344252
0.000385157
0.000425005
0.000464486
0.000504787
0.000547641
0.000595763
0.000644176
0.000692504
0.000742399
0.000798667
0.000860348
8.94606e-05
0.00026244
0.000268804
0.000249713
0.000219884
0.00018392
0.000152226
0.000126451
0.000105856
8.94004e-05
7.62557e-05
6.56073e-05
5.6815e-05
4.93526e-05
4.27477e-05
3.65014e-05
3.1806e-05
2.35941e-05
0.00079697
0.00144322
0.000287034
0.000259658
0.000261768
0.000267748
0.00027665
0.000290085
0.000310346
0.000340552
0.000379751
0.000430835
0.000499169
0.000600308
0.000785372
0.00112891
0.000978369
0.000858096
0.000512158
0.00036948
0.00029411
0.000242721
0.000203868
0.000186677
0.000154538
0.0001249
0.000100629
8.1441e-05
6.64906e-05
5.47944e-05
4.56089e-05
3.86887e-05
3.45e-05
3.27386e-05
6.57918e-05
4.80714e-05
0.00163055
0.00407914
0.000407437
0.000242991
0.000229172
0.000231087
0.000238303
0.000250573
0.000268477
0.000292739
0.000324846
0.000366876
0.000421208
0.000494859
0.0006012
0.000724425
0.000829509
0.00158362
0.00102836
0.000512495
0.000367759
0.000294258
0.000261987
0.000550923
0.000362118
0.000250348
0.000181046
0.000136091
0.000105781
8.4685e-05
6.97536e-05
5.9412e-05
4.50979e-05
3.79505e-05
0.000108306
7.07732e-05
0.00285334
0.00877066
0.000709934
0.00024078
0.000202538
0.000200071
0.000203239
0.00020986
0.000220671
0.000237578
0.00026325
0.000299961
0.00034912
0.000412195
0.000487845
0.000560051
0.00061227
0.000824275
0.00156487
0.000729134
0.000459868
0.000358328
0.000301917
0.00029179
0.000813959
0.000612347
0.000481463
0.000388035
0.000318689
0.000263943
0.00021844
0.000178745
0.000141611
8.36379e-05
5.47805e-05
0.000149011
9.44205e-05
0.00454568
0.0158281
0.00134645
0.000258388
0.00017578
0.000166835
0.000165836
0.000167805
0.000173961
0.00018746
0.000211689
0.000248334
0.000297683
0.00035914
0.00042754
0.000488908
0.000528334
0.000582342
0.000627397
0.000483177
0.000393513
0.000331062
0.000282312
0.000248616
0.000247804
0.000226723
0.000202865
0.000180985
0.000162607
0.000146452
0.000131791
0.000118209
0.000105058
8.44282e-05
6.40692e-05
0.000105281
0.000138826
0.00016035
0.000379269
0.000328173
0.0067631
0.0248799
0.00255367
0.000318104
0.000155572
0.000137098
0.000132153
0.000130713
0.000134476
0.000148568
0.000176712
0.000218045
0.000270685
0.000333875
0.000401381
0.000462245
0.000502648
0.000521446
0.000504645
0.000438198
0.000373825
0.000315667
0.000264747
0.000223373
0.000193269
0.00016961
0.000150799
0.000135617
0.000123286
0.000112734
0.000103274
9.45131e-05
8.60811e-05
7.59e-05
6.5249e-05
7.75358e-05
9.96871e-05
0.00021498
0.00109936
0.000557765
0.00967145
0.0336395
0.00458426
0.000465008
0.000150861
0.000116362
0.000107105
0.000103296
0.000107089
0.000127937
0.000166146
0.000215869
0.000273191
0.000339795
0.000408928
0.000469999
0.000509763
0.000520145
0.000494126
0.000437538
0.000371816
0.000307474
0.000250536
0.000204416
0.000169726
0.000144546
0.000126328
0.000112749
0.000102294
9.37165e-05
8.62117e-05
7.93261e-05
7.27888e-05
6.61404e-05
6.02655e-05
6.3597e-05
7.67739e-05
0.000179716
0.00166264
0.000923186
0.0127582
0.0404095
0.0074911
0.000871277
0.000194257
0.000115374
9.73862e-05
9.14583e-05
9.86351e-05
0.000137717
0.000189298
0.000246241
0.000306943
0.000373596
0.000444444
0.000507678
0.000547031
0.000550649
0.000515502
0.000451441
0.000375457
0.000300929
0.000236452
0.000185938
0.000149301
0.000123986
0.000106733
9.46037e-05
8.57726e-05
7.8832e-05
7.29062e-05
6.75217e-05
6.24561e-05
5.76538e-05
5.38886e-05
5.54235e-05
7.05991e-05
0.000380599
0.00589023
0.00214945
0.0138267
0.0414605
0.0139344
0.00316362
0.000629783
0.000207917
0.000132629
0.000115959
0.000142389
0.000192857
0.00024924
0.000306373
0.000367275
0.000436522
0.000510926
0.00057554
0.000610675
0.000602905
0.000551922
0.000470789
0.000378381
0.000290854
0.000218228
0.000164016
0.000126794
0.000102646
8.73399e-05
7.7406e-05
7.0729e-05
6.57266e-05
6.15083e-05
5.76419e-05
5.39696e-05
5.05698e-05
4.81831e-05
5.12044e-05
9.78963e-05
0.00119222
0.0159221
0.00309294
0.0130038
0.028371
0.0144162
0.00572599
0.00210344
0.000834034
0.000413371
0.000276677
0.000278796
0.000314393
0.000355935
0.000401634
0.000458605
0.00053103
0.000610181
0.000674104
0.000698617
0.000670355
0.000593465
0.000486392
0.000372465
0.000270627
0.000191167
0.000135824
0.00010076
7.99658e-05
6.80559e-05
6.12797e-05
5.72005e-05
5.42526e-05
5.16898e-05
4.9211e-05
4.67655e-05
4.4569e-05
4.37128e-05
5.20577e-05
0.000194702
0.00352589
0.0121281
0.00327472
0.0106891
0.0193579
0.0120389
0.00629958
0.00317353
0.00167388
0.00098606
0.000678457
0.000559538
0.000516944
0.000510146
0.00053139
0.000583966
0.000663404
0.000748287
0.000805678
0.000807413
0.000743728
0.000627446
0.000485528
0.000347276
0.000233518
0.00015262
0.000101948
7.37034e-05
5.89208e-05
5.14587e-05
4.80384e-05
4.62469e-05
4.49317e-05
4.3628e-05
4.22002e-05
4.07504e-05
3.98296e-05
4.16142e-05
5.89432e-05
0.000237319
0.00266559
0.0110244
0.00341077
0.00807221
0.0137706
0.00969226
0.00593279
0.00356889
0.00222669
0.00149005
0.00109221
0.00086863
0.000743059
0.000685632
0.000690327
0.000751486
0.000846412
0.000934093
0.000969677
0.000926251
0.000804943
0.000633925
0.000451365
0.000292704
0.000177412
0.00010719
6.95762e-05
5.25618e-05
4.44263e-05
4.06172e-05
3.923e-05
3.86473e-05
3.81964e-05
3.76096e-05
3.68714e-05
3.63539e-05
3.75277e-05
4.57165e-05
8.69942e-05
0.000331786
0.00228653
0.0086845
0.00399769
0.0061241
0.0101687
0.00779183
0.00531259
0.00357004
0.00246892
0.00178769
0.00136792
0.00109263
0.000925799
0.000859331
0.000887657
0.000985073
0.00110076
0.0011727
0.0011519
0.00102685
0.000820651
0.00058498
0.000367804
0.000208285
0.000114575
7.21052e-05
5.21858e-05
4.27254e-05
3.80031e-05
3.57385e-05
3.49531e-05
3.46662e-05
3.44558e-05
3.41847e-05
3.40644e-05
3.52727e-05
4.23826e-05
7.38832e-05
0.000199323
0.000626977
0.00235169
0.00772182
0.00374191
0.00618294
0.00781502
0.00680637
0.00474043
0.00336616
0.0024627
0.00186591
0.00146239
0.00119454
0.00106463
0.00107119
0.00118287
0.00133397
0.00144312
0.00144259
0.00130196
0.0010502
0.000740366
0.000455825
0.000237856
0.000131013
8.16683e-05
5.9622e-05
4.86703e-05
4.25342e-05
3.88567e-05
3.67533e-05
3.57927e-05
3.53826e-05
3.51917e-05
3.52209e-05
3.61335e-05
4.09323e-05
6.14533e-05
0.000140344
0.000396523
0.00109208
0.0028074
0.00616473
0.00308054
0.00454603
0.00511602
0.00418625
0.00336251
0.00264031
0.0020706
0.00164941
0.00136203
0.00124475
0.00130088
0.00148058
0.00169218
0.00183195
0.00182352
0.00164105
0.00130212
0.000907433
0.000518557
0.000278139
0.00015494
0.000101613
7.82031e-05
6.61453e-05
5.84125e-05
5.28425e-05
4.88605e-05
4.6315e-05
4.50403e-05
4.48177e-05
4.52287e-05
4.63629e-05
4.92609e-05
5.82e-05
8.81788e-05
0.000186146
0.000475541
0.00121598
0.00283705
0.00541599
0.00270241
0.00139829
0.0014287
0.00143137
0.00135304
0.00131135
0.00142231
0.00170697
0.0020446
0.00231166
0.00241402
0.00230013
0.00198511
0.00153304
0.000979893
0.000567138
0.000311757
0.000187192
0.000134469
0.000112083
0.000100064
9.15036e-05
8.44882e-05
7.88134e-05
7.47817e-05
7.27148e-05
7.27074e-05
7.48617e-05
7.8835e-05
8.44116e-05
9.23124e-05
0.000106075
0.000137626
0.000221495
0.000448231
0.00102348
0.00233094
0.0052119
0.00309333
0.00118792
0.0017151
0.00195295
0.00230865
0.00275502
0.00316081
0.00334255
0.00331206
0.00309255
0.00270381
0.00213444
0.00151484
0.000978531
0.000575111
0.000342147
0.00023224
0.000187593
0.00016864
0.000158094
0.000150139
0.000143318
0.000137673
0.000133854
0.000132727
0.000135085
0.000141392
0.000151537
0.000165598
0.000183154
0.000204005
0.000230324
0.000270395
0.000347008
0.000517061
0.000937489
0.00232929
0.004297
0.00366921
0.00741379
0.00808618
0.00481606
0.00340497
0.00373615
0.00414391
0.00415394
0.00394139
0.00358569
0.00313217
0.00262814
0.00208686
0.00153658
0.00104786
0.00068126
0.000457996
0.000351611
0.000308195
0.00029071
0.000282421
0.000277055
0.00027214
0.0002669
0.000261764
0.000258126
0.000257877
0.000262812
0.000274239
0.000293035
0.000319913
0.000356034
0.000403462
0.00046611
0.000554867
0.000697434
0.000942733
0.00144414
0.00326429
0.00446078
0.00405577
0.00650057
0.00513505
0.00436051
0.00461758
0.00454104
0.00427521
0.00369506
0.00304798
0.00246135
0.00196804
0.00156516
0.00124239
0.000989161
0.000798719
0.000661317
0.00056835
0.000512209
0.000482216
0.000469907
0.000469395
0.000476176
0.000486659
0.000498267
0.000509729
0.000521248
0.000534413
0.00055197
0.000577661
0.00061624
0.000673652
0.00075748
0.000877709
0.00104758
0.00128349
0.00160694
0.00206253
0.00273301
0.00413402
0.00592961
0.00438682
0.00535963
0.0033736
0.00332563
0.00362855
0.00389515
0.00356924
0.00298108
0.00238057
0.00186527
0.00144739
0.00111247
0.000848053
0.000650656
0.000520042
0.000451006
0.000423117
0.000418476
0.000427487
0.000444403
0.000465636
0.00048876
0.000512184
0.000535109
0.000557569
0.000580426
0.000605257
0.000634187
0.000669892
0.000716057
0.000778418
0.00086614
0.000992801
0.00117573
0.00143285
0.00177887
0.00222567
0.00278744
0.00348217
0.00428362
0.00351986
)
;

boundaryField
{
    floor
    {
        Cmu             0.09;
        kappa           0.41;
        E               9.8;
        type            epsilonWallFunction;
        value           nonuniform List<scalar> 
36
(
0.000860348
8.94606e-05
0.00026244
0.000268804
0.000249713
0.000219884
0.00018392
0.000152226
0.000126451
0.000105856
8.94004e-05
7.62557e-05
6.56073e-05
5.6815e-05
4.93526e-05
4.27477e-05
3.65014e-05
3.1806e-05
2.35941e-05
2.35941e-05
4.80714e-05
7.07732e-05
9.44205e-05
0.00016035
0.000379269
0.000328173
0.000860348
0.00112891
0.000978369
0.000858096
8.94606e-05
0.000858096
0.000512158
0.00158362
0.00102836
0.00156487
)
;
    }
    ceiling
    {
        Cmu             0.09;
        kappa           0.41;
        E               9.8;
        type            epsilonWallFunction;
        value           nonuniform List<scalar> 
43
(
0.00535963
0.0033736
0.00332563
0.00362855
0.00389515
0.00356924
0.00298108
0.00238057
0.00186527
0.00144739
0.00111247
0.000848053
0.000650656
0.000520042
0.000451006
0.000423117
0.000418476
0.000427487
0.000444403
0.000465636
0.00048876
0.000512184
0.000535109
0.000557569
0.000580426
0.000605257
0.000634187
0.000669892
0.000716057
0.000778418
0.00086614
0.000992801
0.00117573
0.00143285
0.00177887
0.00222567
0.00278744
0.00348217
0.00428362
0.00351986
0.00454603
0.00511602
0.00118792
)
;
    }
    sWall
    {
        Cmu             0.09;
        kappa           0.41;
        E               9.8;
        type            epsilonWallFunction;
        value           nonuniform List<scalar> 9(0.0130038 0.0106891 0.00807221 0.0061241 0.00618294 0.00454603 0.00741379 0.00650057 0.00535963);
    }
    nWall
    {
        Cmu             0.09;
        kappa           0.41;
        E               9.8;
        type            epsilonWallFunction;
        value           nonuniform List<scalar> 
14
(
0.000328173
0.000557765
0.000923186
0.00327472
0.00341077
0.00399769
0.00374191
0.00308054
0.00270241
0.00309333
0.00366921
0.00405577
0.00438682
0.00351986
)
;
    }
    sideWalls
    {
        type            empty;
    }
    glass1
    {
        Cmu             0.09;
        kappa           0.41;
        E               9.8;
        type            epsilonWallFunction;
        value           nonuniform List<scalar> 9(0.000253116 0.00079697 0.00163055 0.00285334 0.00454568 0.0067631 0.00967145 0.0127582 0.0138267);
    }
    glass2
    {
        Cmu             0.09;
        kappa           0.41;
        E               9.8;
        type            epsilonWallFunction;
        value           nonuniform List<scalar> 2(0.00214945 0.00309294);
    }
    sun
    {
        Cmu             0.09;
        kappa           0.41;
        E               9.8;
        type            epsilonWallFunction;
        value           nonuniform List<scalar> 
14
(
0.000253116
0.000306363
0.000303042
0.000344252
0.000385157
0.000425005
0.000464486
0.000504787
0.000547641
0.000595763
0.000644176
0.000692504
0.000742399
0.000798667
)
;
    }
    Table_master
    {
        Cmu             0.09;
        kappa           0.41;
        E               9.8;
        type            epsilonWallFunction;
        value           nonuniform List<scalar> 9(0.000550923 0.000362118 0.000250348 0.000181046 0.000136091 0.000105781 8.4685e-05 6.97536e-05 5.9412e-05);
    }
    Table_slave
    {
        Cmu             0.09;
        kappa           0.41;
        E               9.8;
        type            epsilonWallFunction;
        value           nonuniform List<scalar> 9(0.000813959 0.000612347 0.000481463 0.000388035 0.000318689 0.000263943 0.00021844 0.000178745 0.000141611);
    }
    inlet
    {
        type            turbulentMixingLengthDissipationRateInlet;
        mixingLength    0.01;
        phi             phi;
        k               k;
        value           uniform 0.000471671;
    }
    outlet
    {
        type            zeroGradient;
    }
}


// ************************************************************************* //
