/*--------------------------------*- C++ -*----------------------------------*\
  =========                 |
  \\      /  F ield         | OpenFOAM: The Open Source CFD Toolbox
   \\    /   O peration     | Website:  https://openfoam.org
    \\  /    A nd           | Version:  6
     \\/     M anipulation  |
\*---------------------------------------------------------------------------*/
FoamFile
{
    version     2.0;
    format      ascii;
    class       volVectorField;
    location    "41199.9999994064201";
    object      U;
}
// * * * * * * * * * * * * * * * * * * * * * * * * * * * * * * * * * * * * * //

dimensions      [0 1 -1 0 0 0 0];

internalField   nonuniform List<vector> 
778
(
(0.0656026 0.0794073 0)
(-0.155173 0.0157655 0)
(-0.1643 0.0146257 0)
(-0.192418 0.0122751 0)
(-0.216855 0.00872328 0)
(-0.236913 0.00474027 0)
(-0.252036 0.000411184 0)
(-0.261798 -0.00437603 0)
(-0.265687 -0.0098195 0)
(-0.262701 -0.0161993 0)
(-0.250888 -0.0242713 0)
(-0.226183 -0.0348865 0)
(-0.186064 -0.0504018 0)
(-0.144143 -0.0751627 0)
(-0.150042 -0.108541 0)
(0.0546702 0.035433 0)
(0.0157921 -0.0268613 0)
(0.0449752 -0.0232493 0)
(0.0693639 -0.0161463 0)
(0.0844058 -0.0103429 0)
(0.0916012 -0.0064132 0)
(0.0944344 -0.00434044 0)
(0.0954769 -0.00331797 0)
(0.0959397 -0.00272928 0)
(0.0961143 -0.00231468 0)
(0.0959886 -0.00194949 0)
(0.0954596 -0.00150921 0)
(0.0942002 -0.000756215 0)
(0.0913528 0.000846796 0)
(0.0851482 0.00406885 0)
(0.0736084 0.0077719 0)
(0.0599607 0.0116076 0)
(-0.00796301 0.02999 0)
(0.258404 0.167391 0)
(-0.161233 0.0483907 0)
(-0.141601 0.0459822 0)
(-0.174007 0.0416164 0)
(-0.199371 0.0356672 0)
(-0.220091 0.0291248 0)
(-0.236117 0.0220493 0)
(-0.247363 0.0142149 0)
(-0.253529 0.00527949 0)
(-0.253835 -0.00517148 0)
(-0.24767 -0.0170995 0)
(-0.233957 -0.0308615 0)
(-0.214046 -0.048078 0)
(-0.197467 -0.0699515 0)
(-0.193945 -0.0826287 0)
(-0.166336 -0.0425547 0)
(-0.1053 -0.0363704 0)
(-0.0983293 -0.0444495 0)
(0.109355 -0.0421205 0)
(0.0645029 -0.0411647 0)
(0.0719451 -0.0322515 0)
(0.0859152 -0.0206914 0)
(0.0938018 -0.0104436 0)
(0.0960237 -0.00363232 0)
(0.0957783 -0.000206297 0)
(0.0953905 0.00123578 0)
(0.0953565 0.00188849 0)
(0.0954394 0.00226779 0)
(0.0954479 0.00259278 0)
(0.0953483 0.00313495 0)
(0.0950571 0.00441431 0)
(0.0937994 0.00772809 0)
(0.0881992 0.0167623 0)
(0.0744339 0.0253402 0)
(0.0631165 0.0329407 0)
(-0.0520752 0.0635985 0)
(0.429989 0.253951 0)
(-0.194232 0.0847566 0)
(-0.112773 0.0784345 0)
(-0.14824 0.0669573 0)
(-0.170672 0.055498 0)
(-0.188765 0.0437195 0)
(-0.202599 0.0313295 0)
(-0.212286 0.0179861 0)
(-0.217629 0.00337259 0)
(-0.217976 -0.01266 0)
(-0.21271 -0.0303501 0)
(-0.201596 -0.0499282 0)
(-0.18595 -0.071578 0)
(-0.169411 -0.0932094 0)
(-0.151039 -0.104551 0)
(-0.120205 -0.0931243 0)
(-0.0795279 -0.0949111 0)
(-0.0714785 -0.107535 0)
(0.09212 -0.0882227 0)
(0.0625794 -0.0657658 0)
(0.0743876 -0.0461082 0)
(0.0880214 -0.02921 0)
(0.0948595 -0.0148647 0)
(0.0919456 -0.0119625 0)
(0.0877113 -0.00792968 0)
(0.0853442 -0.00578538 0)
(0.084642 -0.0045694 0)
(0.0846096 -0.00380484 0)
(0.0848635 -0.00322849 0)
(0.0855183 -0.002599 0)
(0.0872827 -0.00143923 0)
(0.09197 0.00291959 0)
(0.0901188 0.0251141 0)
(0.0732862 0.0423689 0)
(0.07008 0.0574376 0)
(-0.0902529 0.100918 0)
(0.578564 0.325834 0)
(-0.240105 0.121805 0)
(-0.0808258 0.109224 0)
(-0.121567 0.0898553 0)
(-0.139 0.0740675 0)
(-0.153061 0.0586274 0)
(-0.163819 0.0427355 0)
(-0.171411 0.0257821 0)
(-0.175615 0.0071626 0)
(-0.175671 -0.0135702 0)
(-0.170973 -0.0365056 0)
(-0.161396 -0.0614804 0)
(-0.147522 -0.0873807 0)
(-0.130539 -0.110292 0)
(-0.109577 -0.123181 0)
(-0.0820974 -0.124511 0)
(-0.0524826 -0.126328 0)
(-0.0333373 -0.123127 0)
(0.0164165 -0.0567944 0)
(0.0608642 -0.0930608 0)
(0.0684875 -0.0791901 0)
(0.079095 -0.058798 0)
(0.0915851 -0.0395397 0)
(0.102923 -0.0208763 0)
(0.115666 -0.01315 0)
(0.126812 -0.00878078 0)
(0.132402 -0.00559069 0)
(0.13339 -0.00309857 0)
(0.130882 -0.000882892 0)
(0.125437 0.00128485 0)
(0.116921 0.00367013 0)
(0.10456 0.00673351 0)
(0.085282 0.011175 0)
(0.0713898 0.0368782 0)
(0.0600528 0.0605997 0)
(0.076233 0.0833251 0)
(-0.118291 0.137074 0)
(0.705753 0.383671 0)
(-0.287686 0.156996 0)
(-0.0476846 0.13378 0)
(-0.0962812 0.106921 0)
(-0.10773 0.0875965 0)
(-0.116765 0.0691693 0)
(-0.123556 0.0504338 0)
(-0.128217 0.0305618 0)
(-0.130574 0.00868563 0)
(-0.129761 -0.015866 0)
(-0.125252 -0.0431218 0)
(-0.116616 -0.0727158 0)
(-0.103881 -0.102836 0)
(-0.0873938 -0.129075 0)
(-0.0674273 -0.145758 0)
(-0.0440734 -0.152225 0)
(-0.0202048 -0.152322 0)
(0.000342786 -0.143672 0)
(0.0308618 -0.114978 0)
(0.057012 -0.109351 0)
(0.0705659 -0.0924171 0)
(0.0806847 -0.0712235 0)
(0.0907357 -0.0507558 0)
(0.100288 -0.0327165 0)
(0.109392 -0.0193546 0)
(0.116414 -0.00999794 0)
(0.11984 -0.00331961 0)
(0.120048 0.00192127 0)
(0.117651 0.00645901 0)
(0.113016 0.0108109 0)
(0.106163 0.015491 0)
(0.0970171 0.0212019 0)
(0.0850659 0.02924 0)
(0.0734596 0.0472972 0)
(0.0628593 0.0713691 0)
(0.0944873 0.099422 0)
(0.0162052 0.138229 0)
(0.0957326 0.183029 0)
(0.141199 0.144025 0)
(-0.219517 0.202048 0)
(0.810472 0.431962 0)
(-0.331332 0.190661 0)
(-0.0172987 0.150244 0)
(-0.073354 0.117523 0)
(-0.0785764 0.0955168 0)
(-0.0822008 0.0749469 0)
(-0.0844602 0.0543352 0)
(-0.0855034 0.0326988 0)
(-0.0852526 0.00882513 0)
(-0.0825791 -0.0184565 0)
(-0.0774064 -0.0490722 0)
(-0.0687656 -0.0825373 0)
(-0.0567463 -0.116521 0)
(-0.0416547 -0.146305 0)
(-0.0246274 -0.165983 0)
(-0.0062091 -0.174466 0)
(0.0121909 -0.172699 0)
(0.0281073 -0.160951 0)
(0.0462556 -0.139276 0)
(0.0626763 -0.122305 0)
(0.0733131 -0.102451 0)
(0.0809613 -0.0803891 0)
(0.0876965 -0.0590386 0)
(0.0938616 -0.0401664 0)
(0.0991836 -0.0250085 0)
(0.10287 -0.0136786 0)
(0.10448 -0.00501562 0)
(0.104068 0.00214916 0)
(0.101939 0.00859667 0)
(0.0983373 0.0148522 0)
(0.0934131 0.0214501 0)
(0.0873842 0.0290292 0)
(0.0804934 0.0385044 0)
(0.0746642 0.0530197 0)
(0.0692428 0.0730924 0)
(0.0912201 0.098789 0)
(0.0727435 0.107275 0)
(0.0894414 0.0470805 0)
(0.146641 -0.0375186 0)
(-0.328144 0.108195 0)
(0.879957 0.47467 0)
(-0.368661 0.220938 0)
(0.00374451 0.155547 0)
(-0.0526442 0.121572 0)
(-0.0521872 0.0978602 0)
(-0.0510112 0.07583 0)
(-0.0490148 0.0540458 0)
(-0.0465083 0.0315248 0)
(-0.0433343 0.00674846 0)
(-0.0373857 -0.0223365 0)
(-0.0303135 -0.0554141 0)
(-0.0205175 -0.0919864 0)
(-0.00867819 -0.128933 0)
(0.0045837 -0.161271 0)
(0.0176998 -0.181895 0)
(0.0305317 -0.1902 0)
(0.0423645 -0.187181 0)
(0.0526717 -0.174347 0)
(0.0626199 -0.15398 0)
(0.0711582 -0.13232 0)
(0.0766384 -0.109296 0)
(0.0800548 -0.0857876 0)
(0.0826136 -0.0636067 0)
(0.0848177 -0.0441134 0)
(0.0866258 -0.028036 0)
(0.0877061 -0.015279 0)
(0.0878398 -0.00505816 0)
(0.0868805 0.00355313 0)
(0.0850176 0.0112455 0)
(0.0823939 0.018553 0)
(0.0791759 0.0259892 0)
(0.0756269 0.0340708 0)
(0.0721217 0.0433664 0)
(0.0699953 0.0551708 0)
(0.068548 0.0698372 0)
(0.0812518 0.0889822 0)
(0.0837976 0.0919355 0)
(0.088869 0.0533346 0)
(0.181901 0.0243587 0)
(-0.282547 0.155726 0)
(0.928014 0.517124 0)
(-0.383188 0.234133 0)
(0.0169292 0.132951 0)
(-0.0273028 0.116654 0)
(-0.0265241 0.0949327 0)
(-0.0227219 0.0724432 0)
(-0.0176209 0.0501155 0)
(-0.0123601 0.0272536 0)
(-0.00542995 0.00186356 0)
(0.00454243 -0.0307679 0)
(0.0142544 -0.065376 0)
(0.0255656 -0.103399 0)
(0.0372438 -0.140932 0)
(0.0479743 -0.172207 0)
(0.057125 -0.192378 0)
(0.0646648 -0.199823 0)
(0.0704138 -0.195352 0)
(0.0743706 -0.18111 0)
(0.0770479 -0.159991 0)
(0.0783672 -0.135974 0)
(0.077955 -0.110947 0)
(0.0763936 -0.0864132 0)
(0.0745174 -0.0638476 0)
(0.0728546 -0.0442572 0)
(0.0715465 -0.0280274 0)
(0.0704647 -0.0148783 0)
(0.0694209 -0.0041072 0)
(0.0681281 0.00507216 0)
(0.0667023 0.0132522 0)
(0.0651132 0.0209351 0)
(0.0634342 0.0285682 0)
(0.0618357 0.0365323 0)
(0.0605855 0.0451496 0)
(0.0604889 0.0549176 0)
(0.061266 0.0657917 0)
(0.0694704 0.0792298 0)
(0.0782111 0.0821052 0)
(0.0772462 0.0595657 0)
(0.240537 0.0512399 0)
(-0.547139 0.231924 0)
(1.01136 0.506769 0)
(-0.137196 0.296304 0)
(0.0411019 0.161482 0)
(0.0406272 0.122062 0)
(0.0131114 0.0919703 0)
(0.00869328 0.0653749 0)
(0.0141083 0.0414037 0)
(0.02072 0.0169873 0)
(0.032505 -0.0110244 0)
(0.0439558 -0.0421719 0)
(0.0558213 -0.0769642 0)
(0.0681119 -0.114729 0)
(0.0792865 -0.151221 0)
(0.0878403 -0.180688 0)
(0.0931164 -0.198686 0)
(0.0952132 -0.203799 0)
(0.0945303 -0.197084 0)
(0.0916114 -0.180978 0)
(0.087134 -0.158534 0)
(0.0815524 -0.133071 0)
(0.0751651 -0.107016 0)
(0.0685751 -0.0821917 0)
(0.0625078 -0.0599566 0)
(0.0574871 -0.0410448 0)
(0.0537119 -0.0255541 0)
(0.0510921 -0.0129936 0)
(0.0493703 -0.00258353 0)
(0.0481525 0.00638192 0)
(0.0474176 0.0144185 0)
(0.0469367 0.0219879 0)
(0.0466563 0.029456 0)
(0.0466145 0.0370881 0)
(0.0469113 0.0450603 0)
(0.0479058 0.0535433 0)
(0.0493636 0.0623222 0)
(0.0542263 0.0717826 0)
(0.0611531 0.0714612 0)
(0.0512683 0.0409295 0)
(0.289933 0.0687519 0)
(-0.778752 0.305163 0)
(0.779362 0.395623 0)
(0.000842237 0.319433 0)
(0.0933944 0.218867 0)
(0.110625 0.155122 0)
(0.0771894 0.106783 0)
(0.0598134 0.0675222 0)
(0.0582316 0.035753 0)
(0.0623918 0.006411 0)
(0.0738016 -0.0234404 0)
(0.0853622 -0.05507 0)
(0.0975564 -0.0898256 0)
(0.109438 -0.126392 0)
(0.118849 -0.160221 0)
(0.124003 -0.185948 0)
(0.124288 -0.19999 0)
(0.12012 -0.201516 0)
(0.112441 -0.191909 0)
(0.102321 -0.173736 0)
(0.090799 -0.150039 0)
(0.0787176 -0.123852 0)
(0.0667684 -0.0977115 0)
(0.0556821 -0.0735288 0)
(0.0461871 -0.052564 0)
(0.0387621 -0.0352723 0)
(0.0335259 -0.0214607 0)
(0.0302632 -0.0103585 0)
(0.028531 -0.0010485 0)
(0.0278706 0.00711515 0)
(0.0280127 0.0145968 0)
(0.0286207 0.0217866 0)
(0.029561 0.0289495 0)
(0.0307664 0.0362658 0)
(0.0321692 0.0438699 0)
(0.0337111 0.0519114 0)
(0.0345945 0.0604597 0)
(0.0343908 0.0702072 0)
(0.0211018 0.0769054 0)
(0.00893678 0.10131 0)
(0.0404775 0.170346 0)
(-0.658969 0.286968 0)
(0.617276 0.220705 0)
(0.0046296 0.298045 0)
(0.11302 0.241491 0)
(0.148305 0.177487 0)
(0.130878 0.123441 0)
(0.117861 0.0777819 0)
(0.114997 0.0388583 0)
(0.117154 0.00337935 0)
(0.123502 -0.0307283 0)
(0.131717 -0.0650359 0)
(0.141404 -0.100583 0)
(0.150302 -0.135533 0)
(0.15547 -0.165473 0)
(0.154969 -0.186035 0)
(0.148476 -0.194895 0)
(0.13688 -0.192087 0)
(0.121646 -0.179375 0)
(0.104274 -0.159351 0)
(0.0861358 -0.134938 0)
(0.0683305 -0.108923 0)
(0.0518022 -0.083785 0)
(0.0374122 -0.0613824 0)
(0.0259093 -0.0428313 0)
(0.0175918 -0.0282037 0)
(0.0122891 -0.0169388 0)
(0.00939618 -0.00789563 0)
(0.00822019 -9.18154e-05 0)
(0.00836256 0.00701173 0)
(0.00932308 0.0137892 0)
(0.0108345 0.0205077 0)
(0.0127581 0.027327 0)
(0.0149863 0.0343778 0)
(0.017385 0.0418296 0)
(0.0197965 0.0500035 0)
(0.0216748 0.0596216 0)
(0.0225856 0.0730322 0)
(0.00757445 0.0947058 0)
(-0.00660021 0.142573 0)
(0.147326 0.18301 0)
(-0.556886 0.177764 0)
(0.570778 0.118375 0)
(-0.0203858 0.258551 0)
(0.113692 0.229821 0)
(0.165052 0.175976 0)
(0.166738 0.126104 0)
(0.164415 0.0810419 0)
(0.165404 0.0399456 0)
(0.168302 0.00162513 0)
(0.172241 -0.0353855 0)
(0.177795 -0.0719284 0)
(0.18396 -0.107662 0)
(0.187668 -0.139807 0)
(0.185895 -0.164447 0)
(0.177254 -0.178729 0)
(0.162186 -0.181847 0)
(0.142228 -0.174701 0)
(0.119317 -0.159347 0)
(0.0952045 -0.138243 0)
(0.0714863 -0.11412 0)
(0.0493706 -0.0894627 0)
(0.0300162 -0.0666642 0)
(0.0143831 -0.0474449 0)
(0.00310352 -0.0326182 0)
(-0.0041825 -0.0214514 0)
(-0.0081223 -0.013216 0)
(-0.0100214 -0.00628969 0)
(-0.0104873 4.01695e-05 0)
(-0.00978418 0.00611424 0)
(-0.00831264 0.0121687 0)
(-0.00621349 0.0183519 0)
(-0.00361364 0.0247556 0)
(-0.000627543 0.0315026 0)
(0.00265156 0.0388415 0)
(0.00613851 0.0470453 0)
(0.00985067 0.057284 0)
(0.0134968 0.0738376 0)
(0.00432589 0.104168 0)
(-0.0170502 0.152619 0)
(0.209736 0.188121 0)
(-0.455636 0.165999 0)
(0.628386 0.0537295 0)
(0.00896702 0.197269 0)
(0.113754 0.196861 0)
(0.175104 0.15782 0)
(0.191399 0.117584 0)
(0.198088 0.0772042 0)
(0.203427 0.0372505 0)
(0.20861 -0.00149083 0)
(0.213071 -0.0396251 0)
(0.217343 -0.0765252 0)
(0.219147 -0.110031 0)
(0.215319 -0.136954 0)
(0.203963 -0.154644 0)
(0.185161 -0.162073 0)
(0.160531 -0.159795 0)
(0.132241 -0.149227 0)
(0.102543 -0.132462 0)
(0.073147 -0.11161 0)
(0.0458318 -0.0892104 0)
(0.0217241 -0.067409 0)
(0.00238606 -0.0485677 0)
(-0.011384 -0.0341832 0)
(-0.0195987 -0.0244221 0)
(-0.024399 -0.0170885 0)
(-0.0269531 -0.0110565 0)
(-0.0280703 -0.00559364 0)
(-0.0280757 -0.000363868 0)
(-0.0270891 0.00483771 0)
(-0.0253341 0.0101776 0)
(-0.0228873 0.0157785 0)
(-0.0198959 0.0217287 0)
(-0.0165406 0.0281441 0)
(-0.0130219 0.0352315 0)
(-0.00944662 0.0433368 0)
(-0.00610399 0.0541733 0)
(-0.00619685 0.0749743 0)
(-0.015656 0.105331 0)
(-0.0282382 0.1304 0)
(0.207126 0.177608 0)
(-0.468983 0.212049 0)
(0.472972 0.0748644 0)
(-0.132298 0.137484 0)
(0.0942162 0.133118 0)
(0.172725 0.116609 0)
(0.20388 0.0951814 0)
(0.218203 0.0642975 0)
(0.228185 0.028371 0)
(0.237208 -0.00890379 0)
(0.243527 -0.0452276 0)
(0.244986 -0.0782215 0)
(0.238977 -0.105203 0)
(0.224137 -0.124065 0)
(0.200981 -0.133905 0)
(0.171425 -0.135147 0)
(0.138067 -0.129047 0)
(0.103218 -0.11689 0)
(0.0692117 -0.100558 0)
(0.0372404 -0.0816795 0)
(0.00969167 -0.0627738 0)
(-0.0129416 -0.0455951 0)
(-0.0271901 -0.0338711 0)
(-0.0360577 -0.0256378 0)
(-0.041257 -0.0194904 0)
(-0.0443279 -0.0143271 0)
(-0.0459912 -0.00970473 0)
(-0.0466007 -0.0053335 0)
(-0.0462867 -0.00103889 0)
(-0.0450595 0.00333094 0)
(-0.0430788 0.00793575 0)
(-0.0403759 0.0129429 0)
(-0.0371521 0.018504 0)
(-0.0337318 0.0248185 0)
(-0.0306518 0.032234 0)
(-0.0285738 0.0415827 0)
(-0.0286932 0.0561153 0)
(-0.0364006 0.0823382 0)
(-0.0550736 0.113546 0)
(-0.0517296 0.132874 0)
(0.0332885 0.176926 0)
(-0.52448 0.219989 0)
(0.724197 0.134552 0)
(0.0818861 0.115274 0)
(0.149773 0.0990697 0)
(0.222446 0.0802307 0)
(0.244163 0.0696883 0)
(0.248996 0.0475422 0)
(0.255263 0.0175675 0)
(0.261309 -0.0145738 0)
(0.260265 -0.0445611 0)
(0.249712 -0.0694616 0)
(0.229404 -0.0875307 0)
(0.200912 -0.0982489 0)
(0.166617 -0.101875 0)
(0.129097 -0.0994036 0)
(0.0908972 -0.0921063 0)
(0.0535042 -0.0806799 0)
(0.0196809 -0.0667946 0)
(-0.0110013 -0.0515628 0)
(-0.0327227 -0.0395394 0)
(-0.0472064 -0.0309024 0)
(-0.0559959 -0.0250074 0)
(-0.0614177 -0.0203635 0)
(-0.0648137 -0.0163071 0)
(-0.0669363 -0.0125095 0)
(-0.0680784 -0.00891117 0)
(-0.0683453 -0.00544712 0)
(-0.0677624 -0.00200914 0)
(-0.066255 0.00156246 0)
(-0.0640481 0.00543962 0)
(-0.0610686 0.00985621 0)
(-0.0575165 0.0150987 0)
(-0.0537621 0.0215573 0)
(-0.0505169 0.029942 0)
(-0.0485102 0.041799 0)
(-0.0477357 0.0606957 0)
(-0.0525262 0.0918808 0)
(-0.069719 0.132367 0)
(-0.0625922 0.161961 0)
(-0.056747 0.160374 0)
(-0.574886 0.102775 0)
(0.192288 0.0878431 0)
(0.226025 0.0994867 0)
(0.246764 0.0698844 0)
(0.242806 0.0397443 0)
(0.239894 0.0122823 0)
(0.234852 -0.012593 0)
(0.220095 -0.0330465 0)
(0.196317 -0.048255 0)
(0.165837 -0.058165 0)
(0.131118 -0.0632078 0)
(0.0939845 -0.0636636 0)
(0.0565012 -0.0603064 0)
(0.0206955 -0.0540444 0)
(-0.0139942 -0.0450708 0)
(-0.0405105 -0.0366309 0)
(-0.0602094 -0.0297649 0)
(-0.0732244 -0.0252288 0)
(-0.0815599 -0.0219883 0)
(-0.0869923 -0.0192955 0)
(-0.0907987 -0.0165545 0)
(-0.0935378 -0.0137373 0)
(-0.0954252 -0.0109515 0)
(-0.0965222 -0.00828525 0)
(-0.0968382 -0.00572773 0)
(-0.0963456 -0.00317146 0)
(-0.094937 -0.00042796 0)
(-0.0926959 0.00269885 0)
(-0.0895345 0.00644067 0)
(-0.0853672 0.0111938 0)
(-0.0803014 0.0175127 0)
(-0.074708 0.0263144 0)
(-0.068806 0.0392805 0)
(-0.0612138 0.0594155 0)
(-0.0513663 0.0910441 0)
(-0.0470476 0.1366 0)
(-0.0321058 0.186857 0)
(0.100027 0.179179 0)
(-0.493683 0.023316 0)
(0.451654 0.209082 0)
(0.206948 0.17837 0)
(0.153128 0.118606 0)
(0.139885 0.0640558 0)
(0.128457 0.02609 0)
(0.11427 0.00209974 0)
(0.0989327 -0.0125899 0)
(0.0777692 -0.0216909 0)
(0.0528252 -0.0273054 0)
(0.0253126 -0.0298535 0)
(-0.00498434 -0.0292932 0)
(-0.0341863 -0.0267565 0)
(-0.0598235 -0.0236209 0)
(-0.0807782 -0.0209788 0)
(-0.0957842 -0.0197125 0)
(-0.105937 -0.019052 0)
(-0.112746 -0.0184214 0)
(-0.117821 -0.0170746 0)
(-0.122016 -0.0149553 0)
(-0.125617 -0.0123104 0)
(-0.128626 -0.0095012 0)
(-0.130981 -0.00683291 0)
(-0.132634 -0.00449788 0)
(-0.133563 -0.00255751 0)
(-0.133729 -0.000953168 0)
(-0.133012 0.000474022 0)
(-0.131095 0.00195148 0)
(-0.127821 0.00378071 0)
(-0.122832 0.006418 0)
(-0.115778 0.0105972 0)
(-0.106532 0.0174485 0)
(-0.0948262 0.0286714 0)
(-0.0790835 0.0465819 0)
(-0.056621 0.0736409 0)
(-0.0303939 0.111758 0)
(-0.00610054 0.161691 0)
(0.164443 0.159592 0)
(-0.3926 0.0793487 0)
(0.361708 -0.413872 0)
(-0.345297 -0.512105 0)
(-0.218306 -0.0284822 0)
(-0.092625 0.110645 0)
(-0.0534017 0.0926085 0)
(-0.031077 0.0548409 0)
(-0.0262684 0.0288543 0)
(-0.0313415 0.0122491 0)
(-0.0404142 0.00156842 0)
(-0.0511554 -0.00539275 0)
(-0.0650495 -0.00966151 0)
(-0.0807116 -0.0120848 0)
(-0.0969657 -0.0138659 0)
(-0.112335 -0.0161827 0)
(-0.125509 -0.0190194 0)
(-0.135238 -0.0220218 0)
(-0.14151 -0.0247405 0)
(-0.145786 -0.0265699 0)
(-0.149503 -0.0275354 0)
(-0.153385 -0.0278205 0)
(-0.157511 -0.0276328 0)
(-0.161687 -0.0271094 0)
(-0.165656 -0.0263156 0)
(-0.169172 -0.0252503 0)
(-0.172025 -0.0238859 0)
(-0.174067 -0.0222157 0)
(-0.175212 -0.0202717 0)
(-0.175377 -0.0180886 0)
(-0.174362 -0.0156327 0)
(-0.171723 -0.0127622 0)
(-0.166798 -0.00919333 0)
(-0.158798 -0.00433822 0)
(-0.146938 0.00286138 0)
(-0.130576 0.0138249 0)
(-0.108817 0.0294153 0)
(-0.0794586 0.0493275 0)
(-0.0420838 0.07326 0)
(-0.00251064 0.108326 0)
(0.185662 0.129376 0)
(-0.397917 0.135718 0)
(0.124205 -0.18479 0)
(-0.387331 -0.297293 0)
(-0.342735 -0.0968008 0)
(-0.264556 0.0510445 0)
(-0.210895 0.0832899 0)
(-0.17875 0.0745027 0)
(-0.162419 0.0611448 0)
(-0.156351 0.051285 0)
(-0.156359 0.0461859 0)
(-0.1596 0.0455991 0)
(-0.16418 0.0486654 0)
(-0.168508 0.0541239 0)
(-0.171716 0.0604579 0)
(-0.173631 0.0654461 0)
(-0.174845 0.0662492 0)
(-0.176283 0.0632068 0)
(-0.178607 0.0596467 0)
(-0.181955 0.057846 0)
(-0.185986 0.058093 0)
(-0.190243 0.0597011 0)
(-0.194339 0.0618547 0)
(-0.198014 0.0638653 0)
(-0.201137 0.0651858 0)
(-0.203652 0.065444 0)
(-0.205541 0.0644971 0)
(-0.206786 0.0624223 0)
(-0.207367 0.0593859 0)
(-0.207247 0.0554445 0)
(-0.206326 0.0504271 0)
(-0.204366 0.0440162 0)
(-0.200934 0.0360445 0)
(-0.195425 0.0267689 0)
(-0.187161 0.0170616 0)
(-0.175334 0.00819383 0)
(-0.158652 0.00105044 0)
(-0.135447 -0.0053379 0)
(-0.102313 -0.0116667 0)
(-0.0530034 -0.00659035 0)
(0.187037 0.0705768 0)
(-0.447018 0.192414 0)
(1.14721 -0.0108254 0)
(-0.295129 -0.322147 0)
(-0.352618 -0.23261 0)
(-0.352159 -0.148304 0)
(-0.328603 -0.107017 0)
(-0.296986 -0.0983388 0)
(-0.269582 -0.100338 0)
(-0.249435 -0.105722 0)
(-0.235537 -0.112912 0)
(-0.225845 -0.12199 0)
(-0.218626 -0.133537 0)
(-0.212878 -0.147918 0)
(-0.208333 -0.164226 0)
(-0.205325 -0.179542 0)
(-0.204653 -0.189491 0)
(-0.207149 -0.193129 0)
(-0.212533 -0.192542 0)
(-0.219464 -0.18975 0)
(-0.226533 -0.186324 0)
(-0.23281 -0.183049 0)
(-0.23786 -0.180132 0)
(-0.241599 -0.177462 0)
(-0.244176 -0.174809 0)
(-0.245901 -0.171914 0)
(-0.247163 -0.168548 0)
(-0.248332 -0.164539 0)
(-0.249696 -0.159793 0)
(-0.251508 -0.154283 0)
(-0.254136 -0.148004 0)
(-0.258156 -0.14085 0)
(-0.264257 -0.132416 0)
(-0.272919 -0.121751 0)
(-0.284027 -0.107241 0)
(-0.296646 -0.0869605 0)
(-0.308898 -0.0597182 0)
(-0.316639 -0.0261328 0)
(-0.30969 0.0123354 0)
(-0.275799 0.0582932 0)
(-0.248642 0.119135 0)
(-0.592126 0.19921 0)
)
;

boundaryField
{
    floor
    {
        type            noSlip;
    }
    ceiling
    {
        type            noSlip;
    }
    sWall
    {
        type            noSlip;
    }
    nWall
    {
        type            noSlip;
    }
    sideWalls
    {
        type            empty;
    }
    glass1
    {
        type            noSlip;
    }
    glass2
    {
        type            noSlip;
    }
    sun
    {
        type            noSlip;
    }
    Table_master
    {
        type            noSlip;
    }
    Table_slave
    {
        type            noSlip;
    }
    inlet
    {
        type            fixedValue;
        value           uniform (0.5 0 0);
    }
    outlet
    {
        type            zeroGradient;
    }
}


// ************************************************************************* //
