/*--------------------------------*- C++ -*----------------------------------*\
  =========                 |
  \\      /  F ield         | OpenFOAM: The Open Source CFD Toolbox
   \\    /   O peration     | Website:  https://openfoam.org
    \\  /    A nd           | Version:  6
     \\/     M anipulation  |
\*---------------------------------------------------------------------------*/
FoamFile
{
    version     2.0;
    format      ascii;
    class       volScalarField;
    location    "1520";
    object      epsilon;
}
// * * * * * * * * * * * * * * * * * * * * * * * * * * * * * * * * * * * * * //

dimensions      [0 2 -3 0 0 0 0];

internalField   nonuniform List<scalar> 
458
(
0.000432829
0.000557941
0.000596634
0.000686426
0.000776721
0.000869198
0.000968781
0.00107738
0.00117195
0.0012341
0.00124123
0.00117482
0.00102228
0.00074413
0.000324974
3.92329e-05
6.32045e-05
9.21075e-05
0.000104417
9.95922e-05
8.16147e-05
6.44042e-05
5.12212e-05
4.13707e-05
3.39151e-05
2.81877e-05
2.37387e-05
2.02083e-05
1.7314e-05
1.48374e-05
1.26003e-05
1.1384e-05
8.83733e-06
0.00106104
0.00158339
0.000518513
0.000502688
0.000518542
0.000551023
0.000606378
0.000688596
0.000779852
0.000854075
0.000882159
0.000847906
0.00075696
0.000624041
0.000502049
0.000747422
0.000426801
0.000231806
3.82941e-05
7.53661e-05
9.27459e-05
9.34315e-05
8.97332e-05
9.00366e-05
7.05612e-05
5.34941e-05
4.08066e-05
3.15365e-05
2.47406e-05
1.97224e-05
1.59674e-05
1.31684e-05
1.14063e-05
1.06889e-05
3.04895e-05
2.0075e-05
0.00190711
0.00384788
0.000603818
0.000458351
0.0004661
0.000508251
0.00058057
0.000683793
0.000797283
0.000884539
0.000918209
0.0008881
0.000802139
0.00066727
0.000517714
0.000416472
0.000353118
0.000381929
0.00013991
0.000139216
0.000125573
0.000111521
0.000103528
0.000198169
0.000132978
9.11342e-05
6.45259e-05
4.72857e-05
3.58125e-05
2.79867e-05
2.25642e-05
1.88679e-05
1.48284e-05
1.3128e-05
6.48744e-05
3.31331e-05
0.00306287
0.00799443
0.000903878
0.000439025
0.000429272
0.000481305
0.000575046
0.000718052
0.000862846
0.000958239
0.000989486
0.000953159
0.000855449
0.000703501
0.000548638
0.000432462
0.00036595
0.000380575
0.000583978
0.000375899
0.000245212
0.000178311
0.00014049
0.000123013
0.000283275
0.000218192
0.000180115
0.000155052
0.000135765
0.000118247
0.000103073
8.85118e-05
7.33109e-05
4.53994e-05
2.92915e-05
0.000114639
5.06234e-05
0.00464967
0.0144274
0.00174047
0.000470914
0.000395672
0.000451664
0.000588993
0.00083298
0.00101868
0.00111199
0.00112853
0.0010694
0.000937617
0.000753858
0.000564965
0.000420145
0.000331725
0.000302737
0.000303857
0.000253635
0.000209408
0.000175145
0.000146321
0.00012209
0.000113081
0.000103827
9.75481e-05
9.22014e-05
8.6204e-05
7.8772e-05
7.08863e-05
6.31575e-05
5.59031e-05
4.60294e-05
3.619e-05
7.47569e-05
0.000114588
0.000120969
0.000143505
0.000184282
0.00687174
0.0217351
0.00400198
0.000790859
0.000465184
0.000474156
0.000700923
0.00112014
0.00130644
0.0013661
0.00134379
0.00124633
0.00106739
0.000825362
0.000577736
0.000388796
0.000278874
0.000238562
0.000228264
0.000218275
0.000201167
0.00017679
0.00014932
0.000123774
0.000107341
0.000100918
9.97549e-05
9.93499e-05
9.72113e-05
9.16717e-05
8.17155e-05
7.04514e-05
5.98057e-05
5.01465e-05
4.34389e-05
5.55247e-05
8.83473e-05
0.000106128
0.000206706
0.000205618
0.00965903
0.0261941
0.00879625
0.00280122
0.00145462
0.00114134
0.00148357
0.00172703
0.00178632
0.00174942
0.00165005
0.00148367
0.00123012
0.000908239
0.00058832
0.000355957
0.000234542
0.000200247
0.000202408
0.000203056
0.000190073
0.000166888
0.000141365
0.000120221
0.000109082
0.00010856
0.00011367
0.00012016
0.000125735
0.000128184
0.000124104
0.000111092
9.7489e-05
8.59332e-05
8.04449e-05
8.87211e-05
0.000120582
0.000176774
0.000327316
0.0003448
0.0104469
0.030096
0.0160952
0.00965315
0.00597083
0.00418141
0.00338423
0.00287648
0.00253854
0.00228153
0.0020394
0.00176122
0.00139736
0.00096847
0.000561412
0.00030052
0.000190424
0.000174424
0.000179677
0.000177161
0.000162243
0.000141988
0.000124143
0.000113546
0.000112235
0.000119065
0.000131178
0.000146862
0.000165745
0.000187736
0.000212034
0.000232944
0.000246009
0.000273119
0.000329071
0.000480059
0.000820467
0.00137759
0.00411008
0.0012819
0.00984345
0.0172556
0.0132404
0.0099903
0.00750823
0.00579419
0.00458998
0.00379114
0.00325148
0.00282407
0.00242719
0.00200663
0.00148395
0.000914127
0.000407063
0.000216118
0.000158912
0.000147567
0.000144493
0.000136966
0.000124628
0.000112507
0.000104981
0.000104112
0.000109951
0.00012152
0.000138067
0.000159895
0.000188364
0.000225722
0.000275036
0.000339928
0.000427243
0.000551957
0.000734041
0.000976759
0.00125103
0.00149865
0.00170333
0.00104492
0.00347924
0.00472061
0.00512321
0.00502827
0.0047331
0.00431989
0.00378354
0.00315826
0.0025479
0.0019484
0.00116381
0.000536583
0.000254559
0.000159698
0.000129175
0.000118204
0.000110935
0.000103118
9.54647e-05
8.99751e-05
8.84455e-05
9.13052e-05
9.81643e-05
0.000108618
0.00012267
0.0001409
0.000164555
0.000195761
0.000237988
0.000297009
0.000378471
0.000488607
0.000629978
0.000786497
0.000911376
0.000944893
0.0008713
0.000544328
0.00289512
0.00862093
0.00828217
0.00717301
0.00607513
0.00478947
0.00347835
0.00225677
0.00128293
0.000710054
0.000375242
0.000215407
0.000151258
0.000124167
0.000111086
0.000102196
9.42053e-05
8.70362e-05
8.16935e-05
7.89186e-05
7.89935e-05
8.20275e-05
8.79813e-05
9.70346e-05
0.000109709
0.000126911
0.000150034
0.00018115
0.000223216
0.000280005
0.000356645
0.000458337
0.000585908
0.000728733
0.0008422
0.000956455
0.000733737
0.000565825
0.00336791
0.00362376
0.00386703
0.00532545
0.00449756
0.00313001
0.00187937
0.00115786
0.000823517
0.000572191
0.000398411
0.000290005
0.00021527
0.000168088
0.000139723
0.000121151
0.000107468
9.65515e-05
8.81158e-05
8.27105e-05
8.07516e-05
8.22189e-05
8.66763e-05
9.35177e-05
0.000102665
0.000114253
0.000128628
0.000146377
0.000168456
0.000196505
0.000232022
0.000276344
0.00033163
0.000400564
0.000486139
0.000603769
0.000660724
0.000620962
0.000499695
0.000395326
)
;

boundaryField
{
    floor
    {
        Cmu             0.09;
        kappa           0.41;
        E               9.8;
        type            epsilonWallFunction;
        value           nonuniform List<scalar> 
36
(
0.000324974
3.92329e-05
6.32045e-05
9.21075e-05
0.000104417
9.95922e-05
8.16147e-05
6.44042e-05
5.12212e-05
4.13707e-05
3.39151e-05
2.81877e-05
2.37387e-05
2.02083e-05
1.7314e-05
1.48374e-05
1.26003e-05
1.1384e-05
8.83733e-06
8.83733e-06
2.0075e-05
3.31331e-05
5.06234e-05
0.000120969
0.000143505
0.000184282
0.000324974
0.000747422
0.000426801
0.000231806
3.92329e-05
0.000231806
3.82941e-05
0.000381929
0.00013991
0.000583978
)
;
    }
    ceiling
    {
        Cmu             0.09;
        kappa           0.41;
        E               9.8;
        type            epsilonWallFunction;
        value           nonuniform List<scalar> 
43
(
0.00336791
0.00362376
0.00386703
0.00532545
0.00449756
0.00313001
0.00187937
0.00115786
0.000823517
0.000572191
0.000398411
0.000290005
0.00021527
0.000168088
0.000139723
0.000121151
0.000107468
9.65515e-05
8.81158e-05
8.27105e-05
8.07516e-05
8.22189e-05
8.66763e-05
9.35177e-05
0.000102665
0.000114253
0.000128628
0.000146377
0.000168456
0.000196505
0.000232022
0.000276344
0.00033163
0.000400564
0.000486139
0.000603769
0.000660724
0.000620962
0.000499695
0.000395326
0.00984345
0.0172556
0.00289512
)
;
    }
    sWall
    {
        Cmu             0.09;
        kappa           0.41;
        E               9.8;
        type            epsilonWallFunction;
        value           uniform 0.00336791;
    }
    nWall
    {
        Cmu             0.09;
        kappa           0.41;
        E               9.8;
        type            epsilonWallFunction;
        value           nonuniform List<scalar> 6(0.000184282 0.000205618 0.0003448 0.000544328 0.000565825 0.000395326);
    }
    sideWalls
    {
        type            empty;
    }
    glass1
    {
        Cmu             0.09;
        kappa           0.41;
        E               9.8;
        type            epsilonWallFunction;
        value           nonuniform List<scalar> 9(0.000432829 0.00106104 0.00190711 0.00306287 0.00464967 0.00687174 0.00965903 0.0104469 0.00984345);
    }
    glass2
    {
        Cmu             0.09;
        kappa           0.41;
        E               9.8;
        type            epsilonWallFunction;
        value           nonuniform List<scalar> 2(0.0012819 0.00104492);
    }
    sun
    {
        Cmu             0.09;
        kappa           0.41;
        E               9.8;
        type            epsilonWallFunction;
        value           nonuniform List<scalar> 
14
(
0.000432829
0.000557941
0.000596634
0.000686426
0.000776721
0.000869198
0.000968781
0.00107738
0.00117195
0.0012341
0.00124123
0.00117482
0.00102228
0.00074413
)
;
    }
    Table_master
    {
        Cmu             0.09;
        kappa           0.41;
        E               9.8;
        type            epsilonWallFunction;
        value           nonuniform List<scalar> 9(0.000198169 0.000132978 9.11342e-05 6.45259e-05 4.72857e-05 3.58125e-05 2.79867e-05 2.25642e-05 1.88679e-05);
    }
    Table_slave
    {
        Cmu             0.09;
        kappa           0.41;
        E               9.8;
        type            epsilonWallFunction;
        value           nonuniform List<scalar> 9(0.000283275 0.000218192 0.000180115 0.000155052 0.000135765 0.000118247 0.000103073 8.85118e-05 7.33109e-05);
    }
    inlet
    {
        type            turbulentMixingLengthDissipationRateInlet;
        mixingLength    0.01;
        phi             phi;
        k               k;
        value           uniform 0.000471672;
    }
    outlet
    {
        type            zeroGradient;
    }
}


// ************************************************************************* //
