/*--------------------------------*- C++ -*----------------------------------*\
  =========                 |
  \\      /  F ield         | OpenFOAM: The Open Source CFD Toolbox
   \\    /   O peration     | Website:  https://openfoam.org
    \\  /    A nd           | Version:  6
     \\/     M anipulation  |
\*---------------------------------------------------------------------------*/
FoamFile
{
    version     2.0;
    format      ascii;
    class       volScalarField;
    location    "39299.9999990193392";
    object      k;
}
// * * * * * * * * * * * * * * * * * * * * * * * * * * * * * * * * * * * * * //

dimensions      [0 2 -2 0 0 0 0];

internalField   nonuniform List<scalar> 
778
(
0.00158588
0.00180108
0.00178801
0.00194662
0.00209793
0.00224027
0.00237701
0.00251267
0.00265305
0.0028064
0.00295662
0.00310289
0.00325035
0.0034127
0.0035863
0.000793068
0.0016246
0.00165103
0.00157209
0.00144441
0.00128232
0.00113036
0.000998767
0.000887068
0.00079254
0.000712813
0.000644813
0.000585843
0.000533358
0.000484644
0.000436202
0.000397928
0.000326071
0.00340686
0.00643319
0.00268758
0.00274625
0.00288798
0.00305461
0.00323503
0.00343085
0.00364413
0.00387449
0.00412654
0.0043802
0.00459577
0.00470073
0.00459476
0.00429839
0.00390734
0.00358
0.00253554
0.00281138
0.00295325
0.00289546
0.00266267
0.00226402
0.00190508
0.00160906
0.00136948
0.00117574
0.00101696
0.000885171
0.000773921
0.000681115
0.000615096
0.000574549
0.000864204
0.000523935
0.00549054
0.0127804
0.00347797
0.00321233
0.0032977
0.00345558
0.003637
0.00384123
0.0040716
0.00432824
0.00463628
0.00501147
0.0054513
0.00596029
0.00653065
0.00685876
0.00627665
0.00538524
0.00403734
0.00416865
0.00417136
0.00397351
0.00357547
0.00266328
0.00201367
0.00157467
0.00126883
0.00104902
0.000886806
0.00076455
0.00067177
0.000603586
0.000551411
0.000548607
0.00116561
0.000677869
0.00797308
0.0217568
0.00449098
0.00339095
0.00334177
0.00343836
0.00354976
0.00366927
0.00380954
0.0039919
0.00425974
0.00464901
0.0051715
0.00582507
0.00655404
0.00713337
0.00722701
0.00724188
0.00534315
0.0055506
0.00537619
0.00512519
0.00478636
0.00434733
0.00345482
0.00285777
0.00243463
0.00210876
0.00184953
0.00163122
0.00143793
0.00125799
0.00107711
0.000800106
0.000659377
0.0014221
0.000821305
0.0108756
0.0336317
0.0062121
0.00342513
0.00315849
0.0031672
0.00318983
0.00321016
0.00325246
0.0033615
0.00359518
0.0039896
0.00455364
0.00527652
0.00608632
0.00681657
0.00728255
0.00764383
0.00751776
0.00665437
0.00607346
0.00557905
0.00509891
0.00462897
0.0041224
0.00366474
0.00327412
0.00293649
0.00263037
0.00234703
0.00207855
0.00181781
0.00155422
0.00122105
0.00092934
0.00118992
0.00121559
0.00116814
0.00205505
0.00186766
0.0141736
0.0475946
0.00928214
0.00348999
0.00290867
0.00282289
0.00276457
0.00269973
0.00266443
0.0027348
0.00298108
0.00341446
0.0040234
0.00479695
0.00565234
0.00645932
0.0070673
0.00740638
0.00732337
0.0067898
0.00621508
0.00563717
0.00507422
0.00455576
0.00409093
0.00369524
0.00336268
0.00307325
0.00280636
0.00255111
0.0022985
0.0020416
0.00177313
0.00147064
0.00117733
0.00111167
0.00111009
0.0017266
0.00515155
0.00266423
0.0179902
0.0606019
0.0143564
0.0038191
0.00271519
0.00252943
0.00241186
0.00229414
0.00222118
0.00231173
0.00263052
0.00313937
0.00380151
0.00462957
0.00552614
0.00636396
0.00699837
0.00732633
0.00725347
0.00681759
0.00621514
0.00555463
0.00491172
0.00434259
0.00387231
0.0035003
0.00320668
0.00296177
0.00274141
0.00252912
0.00231332
0.00208673
0.00184458
0.0015824
0.00132676
0.00115838
0.00109066
0.00157224
0.0063613
0.00371753
0.0216389
0.0704788
0.0214311
0.00510043
0.00274239
0.00237166
0.00221006
0.00208191
0.00202635
0.00221966
0.00265009
0.00323099
0.00393639
0.00477242
0.00569573
0.00656974
0.00722023
0.00751144
0.00738275
0.00689531
0.00619757
0.00542643
0.00469111
0.00406419
0.00357429
0.00321248
0.00294781
0.00274126
0.00256464
0.00239629
0.00222232
0.00203519
0.0018316
0.00161269
0.00139717
0.00122693
0.00115075
0.0021506
0.0146781
0.00646303
0.0228318
0.069497
0.0325281
0.0110491
0.00406373
0.00258637
0.00223512
0.00210284
0.00218991
0.00251276
0.00300099
0.00360214
0.00433135
0.00520973
0.0061807
0.00708263
0.00771276
0.00791973
0.00766227
0.00702385
0.00616392
0.00524741
0.00440672
0.00372195
0.00321645
0.00286891
0.00263582
0.00246947
0.00233691
0.00221208
0.00207995
0.00193335
0.0017701
0.00159305
0.00141635
0.00127857
0.00131486
0.00411354
0.0299272
0.00814746
0.0219177
0.0516422
0.0336412
0.0174255
0.00857981
0.00475439
0.00325892
0.00272922
0.00285279
0.00321121
0.00367285
0.00424604
0.00499319
0.00593402
0.00696832
0.0078815
0.00843656
0.00847987
0.00800035
0.00712094
0.00603872
0.00495196
0.00401017
0.00329008
0.00279768
0.00248868
0.00230247
0.00218471
0.002097
0.00201239
0.00191731
0.00180615
0.00167812
0.00153703
0.00139519
0.00129808
0.00159858
0.0082162
0.0271366
0.00861012
0.0192341
0.0394441
0.0302384
0.0195613
0.0121761
0.00793337
0.00571329
0.00466676
0.00436069
0.00439894
0.00465166
0.00514313
0.0059304
0.00697386
0.00808054
0.00895734
0.00933826
0.00909273
0.00826931
0.00705606
0.00570707
0.00445648
0.00346004
0.00276803
0.00234809
0.00211489
0.00199033
0.0019236
0.00187422
0.00182075
0.00175323
0.00166811
0.00156627
0.00145396
0.00134791
0.00133362
0.00204531
0.00837941
0.0260218
0.00873798
0.0159511
0.0315916
0.0266525
0.0195371
0.0139727
0.0102804
0.00802365
0.00674744
0.00604622
0.00572883
0.00578013
0.00626926
0.00720086
0.00840674
0.00955657
0.0102767
0.0103082
0.00959176
0.00828177
0.00665832
0.00504884
0.00371615
0.00279124
0.00223319
0.00195385
0.0018142
0.00174564
0.00171241
0.00168539
0.00165004
0.00159915
0.0015302
0.00144548
0.00135718
0.00130222
0.00153407
0.0032255
0.0092121
0.0232829
0.00848956
0.0132674
0.025674
0.0233525
0.0186896
0.0145822
0.011586
0.0095409
0.00820723
0.00729797
0.0068379
0.00695376
0.00771055
0.0089644
0.0103494
0.0113951
0.0117029
0.0111093
0.0096954
0.00778193
0.0057526
0.0040232
0.00283213
0.00219267
0.00186072
0.00169672
0.00161565
0.0015758
0.00155504
0.0015346
0.00150473
0.00146008
0.00139928
0.00132823
0.00127338
0.00135868
0.00216637
0.00478953
0.0102533
0.0186822
0.00788619
0.0133467
0.0224214
0.0220593
0.0177605
0.0143922
0.0118932
0.0100826
0.00876812
0.00791739
0.00777174
0.00846508
0.00985254
0.0115047
0.0128543
0.0133973
0.0128507
0.0112891
0.0089862
0.00651516
0.0043045
0.00296006
0.00222302
0.00185322
0.00166536
0.00156553
0.00150912
0.00147523
0.00145182
0.00142673
0.00139346
0.0013488
0.00129369
0.0012395
0.00123324
0.00146629
0.00256604
0.00544588
0.0104067
0.0161946
0.00739419
0.0108738
0.0117648
0.0129245
0.012554
0.0113764
0.0100772
0.00894971
0.00820601
0.00830333
0.00941013
0.0112755
0.013335
0.0149269
0.0155196
0.0148491
0.0129034
0.0101729
0.00702668
0.00464255
0.00313991
0.00235191
0.00196267
0.00176157
0.00164211
0.00156073
0.00150057
0.0014544
0.00141751
0.00138154
0.00134308
0.00130313
0.00126786
0.0012543
0.00131315
0.00160586
0.00259337
0.00509156
0.00959944
0.0168614
0.00790118
0.00354442
0.00482663
0.00600295
0.00661251
0.0072935
0.0088039
0.0113113
0.014126
0.0165282
0.0179601
0.0180661
0.0167676
0.0142646
0.0106491
0.00735059
0.00485063
0.00334554
0.00257642
0.00221283
0.00202382
0.00190157
0.00180441
0.00171889
0.00164279
0.00157861
0.00153047
0.00149799
0.00148445
0.00149772
0.00154547
0.00163669
0.00180143
0.00214315
0.00294444
0.00488565
0.00991446
0.0151359
0.00883868
0.0044458
0.00630049
0.00812519
0.0110441
0.0147183
0.0181689
0.0203896
0.021437
0.0213562
0.0201424
0.0176189
0.0141646
0.0105184
0.00723301
0.00491038
0.00356848
0.00291875
0.00261959
0.00246429
0.00236317
0.00228312
0.00221177
0.00214575
0.00208772
0.00204537
0.00203022
0.00205258
0.00212422
0.00225358
0.00244267
0.00269256
0.00302252
0.0035065
0.00434039
0.00606122
0.0114794
0.01489
0.00920445
0.0150713
0.024426
0.0180959
0.0144133
0.0170449
0.0207431
0.0228682
0.0235575
0.0230862
0.0217181
0.0196994
0.0170643
0.0139092
0.0106113
0.00767288
0.00550661
0.0042565
0.00365354
0.00337293
0.00323048
0.00315359
0.0031127
0.00308982
0.00307069
0.00304709
0.00302148
0.00300849
0.00302946
0.00310243
0.00324174
0.00345577
0.00375035
0.00413551
0.00464264
0.00535569
0.00646695
0.00844706
0.0134705
0.017675
0.00904411
0.0138083
0.0170474
0.0178849
0.0207934
0.0217397
0.0221622
0.0211654
0.0193502
0.0172277
0.0150504
0.012921
0.0108901
0.00901189
0.00738723
0.00611824
0.00520141
0.00459635
0.0042219
0.0040046
0.00390495
0.00390004
0.00396868
0.00408582
0.00422344
0.00435569
0.00446641
0.00455596
0.00464353
0.00476455
0.00494354
0.00520142
0.00556019
0.00605021
0.00672613
0.007683
0.00904167
0.0109634
0.0146774
0.0208755
0.00880884
0.0121405
0.00891124
0.00882556
0.00934864
0.00979459
0.00922619
0.00816654
0.0070156
0.00595704
0.00503778
0.00424953
0.00358038
0.00303578
0.00263289
0.00238071
0.00226875
0.00223585
0.00225243
0.00230446
0.00238197
0.00247583
0.00257772
0.00268108
0.00278195
0.0028794
0.00297557
0.00307514
0.00318421
0.00330898
0.00345472
0.00362621
0.00383153
0.00408671
0.00442239
0.00488907
0.00555008
0.00645395
0.00759833
0.00889404
0.00778262
)
;

boundaryField
{
    floor
    {
        type            kqRWallFunction;
        value           nonuniform List<scalar> 
36
(
0.0035863
0.000793068
0.0016246
0.00165103
0.00157209
0.00144441
0.00128232
0.00113036
0.000998767
0.000887068
0.00079254
0.000712813
0.000644813
0.000585843
0.000533358
0.000484644
0.000436202
0.000397928
0.000326071
0.000326071
0.000523935
0.000677869
0.000821305
0.00116814
0.00205505
0.00186766
0.0035863
0.00429839
0.00390734
0.00358
0.000793068
0.00358
0.00253554
0.00538524
0.00403734
0.00534315
)
;
    }
    ceiling
    {
        type            kqRWallFunction;
        value           nonuniform List<scalar> 
43
(
0.0121405
0.00891124
0.00882556
0.00934864
0.00979459
0.00922619
0.00816654
0.0070156
0.00595704
0.00503778
0.00424953
0.00358038
0.00303578
0.00263289
0.00238071
0.00226875
0.00223585
0.00225243
0.00230446
0.00238197
0.00247583
0.00257772
0.00268108
0.00278195
0.0028794
0.00297557
0.00307514
0.00318421
0.00330898
0.00345472
0.00362621
0.00383153
0.00408671
0.00442239
0.00488907
0.00555008
0.00645395
0.00759833
0.00889404
0.00778262
0.0108738
0.0117648
0.0044458
)
;
    }
    sWall
    {
        type            kqRWallFunction;
        value           nonuniform List<scalar> 9(0.0219177 0.0192341 0.0159511 0.0132674 0.0133467 0.0108738 0.0150713 0.0138083 0.0121405);
    }
    nWall
    {
        type            kqRWallFunction;
        value           nonuniform List<scalar> 
14
(
0.00186766
0.00266423
0.00371753
0.00861012
0.00873798
0.00848956
0.00788619
0.00739419
0.00790118
0.00883868
0.00920445
0.00904411
0.00880884
0.00778262
)
;
    }
    sideWalls
    {
        type            empty;
    }
    glass1
    {
        type            kqRWallFunction;
        value           nonuniform List<scalar> 9(0.00158588 0.00340686 0.00549054 0.00797308 0.0108756 0.0141736 0.0179902 0.0216389 0.0228318);
    }
    glass2
    {
        type            kqRWallFunction;
        value           nonuniform List<scalar> 2(0.00646303 0.00814746);
    }
    sun
    {
        type            kqRWallFunction;
        value           nonuniform List<scalar> 
14
(
0.00158588
0.00180108
0.00178801
0.00194662
0.00209793
0.00224027
0.00237701
0.00251267
0.00265305
0.0028064
0.00295662
0.00310289
0.00325035
0.0034127
)
;
    }
    Table_master
    {
        type            kqRWallFunction;
        value           nonuniform List<scalar> 9(0.00266328 0.00201367 0.00157467 0.00126883 0.00104902 0.000886806 0.00076455 0.00067177 0.000603586);
    }
    Table_slave
    {
        type            kqRWallFunction;
        value           nonuniform List<scalar> 9(0.00345482 0.00285777 0.00243463 0.00210876 0.00184953 0.00163122 0.00143793 0.00125799 0.00107711);
    }
    inlet
    {
        type            turbulentIntensityKineticEnergyInlet;
        intensity       0.05;
        value           uniform 0.0009375;
    }
    outlet
    {
        type            zeroGradient;
    }
}


// ************************************************************************* //
