/*--------------------------------*- C++ -*----------------------------------*\
  =========                 |
  \\      /  F ield         | OpenFOAM: The Open Source CFD Toolbox
   \\    /   O peration     | Website:  https://openfoam.org
    \\  /    A nd           | Version:  6
     \\/     M anipulation  |
\*---------------------------------------------------------------------------*/
FoamFile
{
    version     2.0;
    format      ascii;
    class       volScalarField;
    location    "3090";
    object      nut;
}
// * * * * * * * * * * * * * * * * * * * * * * * * * * * * * * * * * * * * * //

dimensions      [0 2 -1 0 0 0 0];

internalField   nonuniform List<scalar> 
458
(
0.0010694
0.00116385
0.00119015
0.00124709
0.00129953
0.00134918
0.00139886
0.00144929
0.00149051
0.00151641
0.00151933
0.00149176
0.0014242
0.0012812
0.00097197
0.000480386
0.000563157
0.000638477
0.000665731
0.000655311
0.000613241
0.000566693
0.000525043
0.00048896
0.000457623
0.00043026
0.000406311
0.000385078
0.000365739
0.000347395
0.000328976
0.000318032
0.00029229
0.00144197
0.00324222
0.0029903
0.0034263
0.00386101
0.00430816
0.00470922
0.00501945
0.00533807
0.00563624
0.0058754
0.0060208
0.00603439
0.0058246
0.00473428
0.00128297
0.0010644
0.000868435
0.00047652
0.00113085
0.00164828
0.0020489
0.00217554
0.00158548
0.00133847
0.00117036
0.00104633
0.000951288
0.000875912
0.000810911
0.000749793
0.000688788
0.0006343
0.000588569
0.000719993
0.000384246
0.00175321
0.00435761
0.00359595
0.00438457
0.00471609
0.00494882
0.00512779
0.00529287
0.00552249
0.00580156
0.00610644
0.00640537
0.00664157
0.00672472
0.00633674
0.00516463
0.00391423
0.00102567
0.000734004
0.00126657
0.00184313
0.00241676
0.00258064
0.00082421
0.000721588
0.000636193
0.000567029
0.000511216
0.000465986
0.000429219
0.000399488
0.000376361
0.000417093
0.00048304
0.00084473
0.00045409
0.0020532
0.00556658
0.00349819
0.00454292
0.00472455
0.00470679
0.00469029
0.00476959
0.00495622
0.00523208
0.00558273
0.005974
0.00631705
0.00653315
0.00648477
0.00614965
0.00527798
0.00289764
0.00118162
0.0015049
0.00206905
0.00275993
0.00335866
0.00338832
0.000928434
0.000851053
0.000798345
0.000759443
0.000726545
0.000693872
0.000662825
0.000630018
0.000591669
0.000557326
0.00054916
0.00100685
0.000522991
0.00235968
0.00719301
0.00366947
0.00431262
0.00457235
0.0044182
0.00429272
0.00436481
0.00456181
0.00484881
0.00522684
0.00565578
0.00599209
0.00615981
0.00615616
0.00603904
0.00569115
0.0047061
0.00426545
0.00429668
0.00454746
0.00484618
0.00502949
0.00494721
0.00422121
0.00384782
0.00364187
0.0034944
0.00334512
0.00315277
0.00282603
0.0024052
0.00192648
0.00146541
0.00109904
0.0010238
0.000888791
0.00069921
0.000740174
0.000804525
0.00268783
0.00902586
0.005026
0.00399302
0.00435234
0.00434399
0.00418412
0.004244
0.00444503
0.0047321
0.00511538
0.00552681
0.00583798
0.0059377
0.00584396
0.0057097
0.00564937
0.00556849
0.00573641
0.0060275
0.00623185
0.00626844
0.00613144
0.00584442
0.00544349
0.0051176
0.00486363
0.00463991
0.00442041
0.00418741
0.00388614
0.0034733
0.00295105
0.00236036
0.00181364
0.00131491
0.00108078
0.000942861
0.00118734
0.000834447
0.00301096
0.0104108
0.00750066
0.00490824
0.00427127
0.00433316
0.00438916
0.00442093
0.00453414
0.00478695
0.0051642
0.00557208
0.00585767
0.00589003
0.00571164
0.00558302
0.00579807
0.00627373
0.00675797
0.00703149
0.00703281
0.00679908
0.00640262
0.0059198
0.0054392
0.00505228
0.00475927
0.00452169
0.00431389
0.00412724
0.00395732
0.00373527
0.00336997
0.00288238
0.00237576
0.00188897
0.00157133
0.00143955
0.00137215
0.000991352
0.00309063
0.00966342
0.00820301
0.00688316
0.00587488
0.00542881
0.00501044
0.00472525
0.00471876
0.00495953
0.00534988
0.00575328
0.00599417
0.00594028
0.00572204
0.00577838
0.00639201
0.00689534
0.00715743
0.00714566
0.0068619
0.00637084
0.00576592
0.00515637
0.00464999
0.00429513
0.00405579
0.00388384
0.00375664
0.00367086
0.00363274
0.0036342
0.00353671
0.00324684
0.00296413
0.00280653
0.00287506
0.00303509
0.00360531
0.00153578
0.0030299
0.00365339
0.0040343
0.00424626
0.0042757
0.00421072
0.00421087
0.00438504
0.00474083
0.0051956
0.00566258
0.00603188
0.00615225
0.00594286
0.00588505
0.0061971
0.00655725
0.0066808
0.00659172
0.00627982
0.00575707
0.00511095
0.00446655
0.00393761
0.00357182
0.00333884
0.00318253
0.00306375
0.00296245
0.00286729
0.00276964
0.00266241
0.00256524
0.00248126
0.00242563
0.00239434
0.00233475
0.00221199
0.00206275
0.00143461
0.00133534
0.00234705
0.00322216
0.0039067
0.00453174
0.00514094
0.00562537
0.00595197
0.00616665
0.00620101
0.00600189
0.00575708
0.00575918
0.00586275
0.00578415
0.00555142
0.00518431
0.00468994
0.00412095
0.00356532
0.00312306
0.00282528
0.00264272
0.00253071
0.00245629
0.00240208
0.00236047
0.00232975
0.00231248
0.00231791
0.00233146
0.00234358
0.00234431
0.00230729
0.00219308
0.00199168
0.00174211
0.00115434
0.00201498
0.00395724
0.0050749
0.00580016
0.00636514
0.00641539
0.00608714
0.00575703
0.0054736
0.00492871
0.00454048
0.00445034
0.00438903
0.00421735
0.00395852
0.00363767
0.00326133
0.00286553
0.00250876
0.00223117
0.00203989
0.00192965
0.00187802
0.00186693
0.00188529
0.00192593
0.00198272
0.00204841
0.00212526
0.00221364
0.00230815
0.002401
0.00247655
0.00251441
0.00247938
0.00244883
0.00225461
0.00116931
0.00211915
0.00217151
0.00221907
0.00246888
0.00233372
0.00206821
0.00174481
0.00148453
0.00132511
0.00117365
0.00104026
0.000935806
0.00084735
0.000780285
0.000733667
0.000699597
0.0006722
0.000648625
0.00062916
0.000616027
0.00061113
0.000614819
0.000625735
0.000641781
0.000662056
0.000686083
0.000713713
0.000745132
0.000780863
0.000822007
0.000868807
0.000920929
0.000978642
0.00104222
0.00111168
0.00119495
0.00123139
0.00120618
0.00112191
0.00103762
)
;

boundaryField
{
    floor
    {
        type            nutkWallFunction;
        Cmu             0.09;
        kappa           0.41;
        E               9.8;
        value           nonuniform List<scalar> 
36
(
0.000117415
5.72034e-05
6.77274e-05
7.71393e-05
8.0511e-05
7.92238e-05
7.40016e-05
6.81725e-05
6.29068e-05
5.83034e-05
5.42709e-05
5.07214e-05
4.75915e-05
4.47967e-05
4.22341e-05
3.97871e-05
3.73132e-05
3.58347e-05
3.233e-05
3.23299e-05
4.46861e-05
5.38133e-05
6.26453e-05
8.46296e-05
8.96381e-05
9.74411e-05
0.000117415
0.00015352
0.000128266
0.000105117
5.72034e-05
0.000105117
5.67064e-05
0.000123733
8.88863e-05
0.000141877
)
;
    }
    ceiling
    {
        type            nutkWallFunction;
        Cmu             0.09;
        kappa           0.41;
        E               9.8;
        value           nonuniform List<scalar> 
43
(
0.000246189
0.000251843
0.000256969
0.000283773
0.000269378
0.000240781
0.000205389
0.000176377
0.000158332
0.000140959
0.000125446
0.000113139
0.000102593
9.45108e-05
8.8845e-05
8.46772e-05
8.13083e-05
7.83961e-05
7.5982e-05
7.43481e-05
7.37379e-05
7.41976e-05
7.55563e-05
7.75482e-05
8.00567e-05
8.30174e-05
8.64069e-05
9.02423e-05
9.45808e-05
9.95478e-05
0.000105162
0.000111374
0.000118205
0.000125676
0.000133781
0.00014342
0.000147615
0.000144715
0.00013497
0.000125139
0.000343193
0.000407608
0.000234818
)
;
    }
    sWall
    {
        type            nutkWallFunction;
        Cmu             0.09;
        kappa           0.41;
        E               9.8;
        value           uniform 0.000246256;
    }
    nWall
    {
        type            nutkWallFunction;
        Cmu             0.09;
        kappa           0.41;
        E               9.8;
        value           nonuniform List<scalar> 6(9.74417e-05 0.000101045 0.000119707 0.000138739 0.000140472 0.000125146);
    }
    sideWalls
    {
        type            empty;
    }
    glass1
    {
        type            nutkWallFunction;
        Cmu             0.09;
        kappa           0.41;
        E               9.8;
        value           nonuniform List<scalar> 9(0.000128958 0.000171809 0.000206643 0.000239578 0.000272694 0.000307648 0.000341635 0.000349964 0.000343641);
    }
    glass2
    {
        type            nutkWallFunction;
        Cmu             0.09;
        kappa           0.41;
        E               9.8;
        value           nonuniform List<scalar> 2(0.000182232 0.00017084);
    }
    sun
    {
        type            nutkWallFunction;
        Cmu             0.09;
        kappa           0.41;
        E               9.8;
        value           nonuniform List<scalar> 
14
(
0.000128854
0.000139823
0.00014286
0.000149409
0.000155412
0.00016107
0.000166709
0.000172409
0.000177053
0.000179962
0.00018029
0.000177193
0.000169576
0.000153316
)
;
    }
    Table_master
    {
        type            nutkWallFunction;
        Cmu             0.09;
        kappa           0.41;
        E               9.8;
        value           nonuniform List<scalar> 9(9.98119e-05 8.73713e-05 7.68585e-05 6.82192e-05 6.11538e-05 5.53581e-05 5.05952e-05 4.67061e-05 4.36557e-05);
    }
    Table_slave
    {
        type            nutkWallFunction;
        Cmu             0.09;
        kappa           0.41;
        E               9.8;
        value           nonuniform List<scalar> 9(0.000112262 0.000103035 9.66947e-05 9.19832e-05 8.79766e-05 8.39761e-05 8.01537e-05 7.60912e-05 7.13098e-05);
    }
    inlet
    {
        type            calculated;
        value           uniform 0.000167705;
    }
    outlet
    {
        type            calculated;
        value           nonuniform List<scalar> 2(0.00211915 0.00217151);
    }
}


// ************************************************************************* //
