/*--------------------------------*- C++ -*----------------------------------*=========                 |
  \      /  F ield         | OpenFOAM: The Open Source CFD Toolbox
   \    /   O peration     | Website:  https://openfoam.org
    \  /    A nd           | Version:  6
     \/     M anipulation  |
\*---------------------------------------------------------------------------*/
FoamFile
{
    version     2.0;
    format      ascii;
    class       volScalarField;
    location    "1940";
    object      PMV;
}
// * * * * * * * * * * * * * * * * * * * * * * * * * * * * * * * * * * * * * //

dimensions      [0 0 0 0 0 0 0];

internalField   nonuniform List<scalar> 
458
(
1.3228874274184794
1.0769997250225438
1.0443888280221225
1.015446102853242
0.9969103239650661
0.988192004088264
0.9906338699398826
1.0052809890319447
1.0343650635092654
1.0822484423589624
1.1527073480792596
1.2236067019201133
1.2393614137306104
1.247477165192161
1.2598890630367865
1.3739550093819426
1.3605945586283583
1.3567771311676993
1.3634575842105616
1.36822920687589
1.3720464262210632
1.3676812567634513
1.363446677271714
1.3644476418793017
1.3663751277024772
1.3693884591289927
1.3726864039024673
1.3770751964205077
1.3835525335192709
1.3948582631906739
1.403058643447839
1.4073522520153474
1.4211865385630909
1.2557551154801712
1.088899024489929
1.0765049503991888
1.0479235348204483
1.0310450099526345
1.023063818961331
1.0240785818357183
1.0323610307379125
1.046582341996538
1.071192546497587
1.111544048177764
1.172416350821857
1.2355421621035083
1.246522382213194
1.2536831798404595
1.2119187765502855
1.2116839214158552
1.2334806374713005
1.326802695715224
1.3477104699838716
1.3472332668556632
1.3548683919169056
1.3577904908397092
1.3573866975604885
1.3574594601316892
1.3586258506025224
1.359357700714261
1.359643642713383
1.3600913608872836
1.361383186688292
1.3625150416483176
1.3656392952951448
1.3742588949540437
1.3825434120637266
1.3892230263283132
1.3724658498433033
1.2869943196756828
1.079828144982261
1.1091620333963115
1.0939611447521633
1.0871576647937764
1.0829926001389252
1.083324396076916
1.0796693372553576
1.0665036197173665
1.0553252521651497
1.0661189340146215
1.1148430620133272
1.2063611657683873
1.2532057987305896
1.2598890630367865
1.262753271730304
1.264169061378034
1.2439949094783866
1.237825324120144
1.3023055001109116
1.3116321926501135
1.3204966338571775
1.3312594633702683
1.3348382989096617
1.3573709295540886
1.3715692776608845
1.3715692776608845
1.3720464262210632
1.3720464262210632
1.3720464262210632
1.372523573674612
1.3730007200202854
1.375863574747052
1.3792035210403348
1.3716442079370397
1.2989513075613848
1.3617997692778558
1.0729438633396926
1.132756720478155
1.1434920902887036
1.1605019964872767
1.1720112475866558
1.1740000527680712
1.1505383431206844
1.0938256476980264
1.0402404620317547
1.027702499110393
1.0730932624891465
1.1658895277423171
1.2592600782747991
1.273255121376115
1.274687160991567
1.249282101331661
1.2250599393802961
1.1741640973762737
1.2405518774002535
1.2764213570904708
1.302318386595155
1.3323612871502122
1.3664307688310755
1.3930277815999876
1.3867146120790748
1.3804180316298598
1.37914512561445
1.3802519796512063
1.3826818689589782
1.389181253941831
1.4023245300610971
1.425557723492698
1.424536083646269
1.4106916574166621
1.3514048214190453
1.2548650212006711
1.455903307453039
1.0811713303929065
1.15025539401899
1.1874086575135723
1.2422294959836107
1.2889052771904248
1.2984313968615766
1.2271500067536956
1.1164725229207233
1.0267632393045554
0.9991381649637472
1.047071389576493
1.1414517606531889
1.2447935674747213
1.2928256690809572
1.2947349129008092
1.2839292049328368
1.2554547864838754
1.2538250771448967
1.2694576019579207
1.3008428015594231
1.3411813856054333
1.3825196662125832
1.4223547207816558
1.4493288520983765
1.4617734109408327
1.4620829126590107
1.4615622579342702
1.4597573034728968
1.4567790685020403
1.4541776192168072
1.4534724705760407
1.453109378188781
1.4378442904667412
1.4114630758235924
1.335803407685047
1.3363744572294656
1.3331135248957626
1.4177532028745083
1.2960428463908622
1.5535136139697963
1.1112592388964422
1.1809530840258098
1.2194453651714323
1.3038037301097785
1.3801577812797408
1.416416212523724
1.2573877984825832
1.1154251846323788
1.0101658127076003
0.9793641103931244
1.0309531271314565
1.1371620270699474
1.2559414542060123
1.3205082818461793
1.3267125725702398
1.3243263262493228
1.3252808276924237
1.3379989381987878
1.3584370705941047
1.3920806582487628
1.4230946338558743
1.4502827483932224
1.4726977281832814
1.489387697353264
1.500354406651201
1.507982948467535
1.5127505863177475
1.5141808472367555
1.5132273415244815
1.5084597192458136
1.5017847881080595
1.484351858876038
1.4544385172389072
1.4178752639273497
1.3470288281119727
1.3407649281382772
1.3335824520816089
1.358606078114316
1.3663571271142159
1.64587833329522
1.1980466814431818
1.3002370040254452
1.2778979198321505
1.332243409971067
1.4116457622482539
1.3492757792003363
1.2274630858838034
1.0856823053097757
0.9811264657828245
0.9602678503515991
1.0309232209720058
1.1591844753022615
1.3019894899633535
1.3582086744650685
1.3696606723833022
1.370137825355419
1.375863574747052
1.393994040616497
1.419278423151812
1.4474210433443748
1.4736514884197267
1.4965399892978206
1.513704095164684
1.5251457081530744
1.5322962470594161
1.53610971773569
1.537539742074629
1.5365863941669353
1.5332496245750746
1.5265758450881874
1.5175180676892004
1.5070294022691468
1.489619734946735
1.4451849124204479
1.3829243013435906
1.3541096030430932
1.3330662451493585
1.3048561364600084
1.4116388954104704
1.7864695073700223
1.5718925718082117
1.5135071562819153
1.3963746130257693
1.3749957900453682
1.363946510774838
1.2938279163835837
1.1530371273992177
1.00414374090041
0.9217118816517277
0.9411931989360786
1.0580454283716574
1.226884917517904
1.3672748910592678
1.4083063739365493
1.4207095115926152
1.425002708933443
1.4350197675805507
1.4545752146549409
1.4779433385578615
1.5008312019933685
1.520855210632827
1.5356330396551696
1.545642930665295
1.5518391586254017
1.5542222465951372
1.554698859046415
1.5532690165444958
1.5504092853373923
1.54659621513254
1.540399746033144
1.531819555847778
1.5213319389775772
1.509413256152007
1.4960631803266795
1.4812813634375268
1.471895880647512
1.4444403953212621
1.3647485971130198
1.2782995352298954
1.9961532394724097
1.848107308033227
1.6863521743511616
1.5429510701565559
1.4510044636120702
1.3796996312644803
1.1876014185584438
0.9690256903293476
0.8369284787796707
0.8360200733470587
0.9522909028569613
1.1558507202967707
1.351528057628738
1.431680811108101
1.4612521641538478
1.4741283663951332
1.4827119237361364
1.4946327443837553
1.5113203113157587
1.5289593743343877
1.54373634153091
1.555652078791982
1.5619436388403747
1.557137839125765
1.551381175089589
1.5449413929969644
1.5371203609009234
1.5284556378267713
1.5181749400559597
1.5066929104341165
1.4935120518938618
1.4785702998566108
1.4645341004762873
1.447683467861986
1.4281217600459635
1.4102468364606022
1.3987146299302944
1.3944768099626381
1.3845065081820913
1.3528650888635496
-1.6591539646496098
-0.7527292243503401
-0.19356731302370592
0.008393032150942779
0.15016632651714368
0.33236510428861593
0.5700400212061079
0.8444573678934509
1.1364592083974119
1.3491420731521362
1.4498058009206396
1.4706577298675834
1.479115120951048
1.487495880100483
1.4980479708819847
1.5107291450258027
1.5224902293472657
1.5308768680237979
1.5346099619731266
1.5348338749059574
1.5320483969950136
1.527338568188317
1.5210812898729744
1.5135962051459584
1.5048845290126298
1.4956953895443268
1.4870210241111759
1.4795325138422364
1.4737691378314797
1.4698959699250087
1.4671057798826272
1.465241955831082
1.463274815905162
1.463945421404233
1.474405370839172
1.5107347864573297
1.577917766072322
1.4255151211731898
-1.6710055571335265
-0.5852650705349232
-0.009240589367152996
0.31346082963036226
0.5201289452509952
0.7780058026036966
1.0440545485423798
1.2761191931112077
1.3721475800425766
1.4150496013136131
1.443668273022916
1.4603418391779497
1.4715584972223563
1.4805681046926644
1.4891087546925703
1.496489401910132
1.5025589785824236
1.5072689607536727
1.5100327894482068
1.5100294567988068
1.5088447917725738
1.5061336346294902
1.5030256455539817
1.499689024845715
1.4962973881008366
1.4935278785685615
1.4911120096737218
1.4900055764101066
1.4901691995819366
1.4928441687098175
1.499646651341022
1.5112635123100862
1.5235519243445865
1.5338853103018335
1.544557721353204
1.579743886257844
1.5279098098141317
1.4687321013597638
-1.1340752184450957
-1.1327120558735282
-1.009289890927526
-0.21078031678463385
0.37114105522307606
0.7830060451247548
1.0816646637856602
1.2301932952041383
1.3193591242632237
1.373250410356113
1.4076205252624228
1.4324954746700613
1.4473187971864963
1.4560397378766883
1.4609644068944134
1.4643351877457196
1.4660273346224144
1.4659125303990077
1.4643511269228648
1.4622088069633805
1.4591904426795756
1.4565230679178567
1.4538335714115893
1.4512157868033004
1.4493085873695444
1.4482958925487932
1.4484404094422765
1.450630993259712
1.454368341648903
1.460912669465604
1.4703762065202595
1.4847816394069422
1.508641046872796
1.5492351066361767
1.609495980075359
1.6152126659735189
1.587641601425272
1.5272867476039191
1.4753688688379
1.4890698851405553
)
;

boundaryField
{
    ".*"
    {
        type            zeroGradient;
    }
}


// ************************************************************************* //
