/*--------------------------------*- C++ -*----------------------------------*\
  =========                 |
  \\      /  F ield         | OpenFOAM: The Open Source CFD Toolbox
   \\    /   O peration     | Website:  https://openfoam.org
    \\  /    A nd           | Version:  6
     \\/     M anipulation  |
\*---------------------------------------------------------------------------*/
FoamFile
{
    version     2.0;
    format      ascii;
    class       volScalarField;
    location    "690";
    object      epsilon;
}
// * * * * * * * * * * * * * * * * * * * * * * * * * * * * * * * * * * * * * //

dimensions      [0 2 -3 0 0 0 0];

internalField   nonuniform List<scalar> 
458
(
0.00051493
0.000669671
0.000723117
0.000837026
0.000954862
0.00108095
0.00122603
0.00136789
0.00148243
0.00153824
0.00150486
0.00135572
0.000940075
0.000569645
0.000340449
5.00703e-05
8.09776e-05
0.00011715
0.000131411
0.000124772
0.000103004
8.22471e-05
6.61507e-05
5.39501e-05
4.45978e-05
3.73383e-05
3.16544e-05
2.70883e-05
2.33034e-05
2.00342e-05
1.70569e-05
1.53966e-05
1.1974e-05
0.00123126
0.00180191
0.000615099
0.000598467
0.000624998
0.000681691
0.000778526
0.000900616
0.00101387
0.00107311
0.0010469
0.000937581
0.000733421
0.000543018
0.000407488
0.000656834
0.00042517
0.00025206
4.81964e-05
8.80806e-05
0.000105097
0.00010614
0.000102717
0.000105123
8.35314e-05
6.43203e-05
4.98003e-05
3.90099e-05
3.09827e-05
2.49895e-05
2.04236e-05
1.69621e-05
1.48054e-05
1.39966e-05
4.05268e-05
2.66451e-05
0.00216839
0.00424349
0.00069853
0.000543681
0.000564891
0.000637267
0.000755083
0.000902929
0.00103011
0.00109329
0.00107427
0.000975841
0.000789979
0.000595841
0.000443681
0.000366644
0.000327794
0.000351581
0.000149071
0.000149416
0.000134298
0.000120803
0.000115046
0.000236455
0.000157886
0.000107908
7.63731e-05
5.60581e-05
4.25911e-05
3.34678e-05
2.71807e-05
2.29696e-05
1.79743e-05
1.62869e-05
8.7477e-05
4.37564e-05
0.0034148
0.00865224
0.00100398
0.000520314
0.00052686
0.000617338
0.000772881
0.000968711
0.00110914
0.00117083
0.00115232
0.00104479
0.00083869
0.000622131
0.000450726
0.000342522
0.00029033
0.000321278
0.000472067
0.000353287
0.000239547
0.000181081
0.000147868
0.000134092
0.000326598
0.00025126
0.000207708
0.000178817
0.000156026
0.000135347
0.000117273
9.98945e-05
8.17867e-05
4.96924e-05
3.27971e-05
0.000163507
6.50703e-05
0.00508506
0.01547
0.00184093
0.000541914
0.000489251
0.000607456
0.000863489
0.00114958
0.00129605
0.00134342
0.00130612
0.00115725
0.000906061
0.000639372
0.000439587
0.000321733
0.000261128
0.000261825
0.000306674
0.000263834
0.000222703
0.000190198
0.000161002
0.000135592
0.000127531
0.000118448
0.000112422
0.000106784
9.96892e-05
9.06361e-05
8.11619e-05
7.19299e-05
6.32106e-05
5.12439e-05
4.02691e-05
0.000102504
0.000160522
0.000155563
0.000178573
0.000224936
0.00738251
0.0232559
0.00407121
0.000817171
0.000522967
0.000627119
0.00114868
0.00150118
0.00161546
0.00161925
0.00153507
0.0013281
0.000997983
0.000653443
0.000407045
0.000276799
0.000228658
0.000232348
0.00025196
0.000250275
0.000233137
0.000204735
0.000171937
0.000141756
0.000123219
0.000117079
0.000116791
0.000116459
0.000113107
0.000105094
9.21174e-05
7.84446e-05
6.60333e-05
5.49314e-05
4.79535e-05
7.05999e-05
0.000120064
0.000141516
0.000256507
0.000252192
0.0102615
0.0280058
0.00883632
0.00266781
0.00140062
0.00135495
0.00192899
0.00210739
0.00210454
0.00201112
0.00184267
0.00154136
0.00109931
0.000657316
0.000362381
0.000232219
0.000205086
0.000223835
0.000249
0.000253515
0.000235204
0.000203579
0.000169986
0.000143089
0.000129664
0.000129701
0.000135973
0.000142995
0.000148095
0.000148627
0.000139739
0.000122839
0.0001066
9.31704e-05
8.75748e-05
0.000101585
0.000146824
0.000224784
0.000424747
0.000431189
0.0110989
0.032258
0.016956
0.00947497
0.00569107
0.00431287
0.00359153
0.00314518
0.00280938
0.00251459
0.00220567
0.0017621
0.00116418
0.000612094
0.000297484
0.000211025
0.000205367
0.000226381
0.000244031
0.000239471
0.000215799
0.000185658
0.0001601
0.00014493
0.000141752
0.000148347
0.000160961
0.000177723
0.000198421
0.000222925
0.000249799
0.000268362
0.000281941
0.000314369
0.000381008
0.000573565
0.00103193
0.00184887
0.00572962
0.00159048
0.010492
0.0185689
0.0144305
0.0107952
0.0080625
0.00624215
0.00500768
0.00417025
0.00352418
0.00300599
0.00253401
0.00188635
0.00106809
0.000468358
0.000270184
0.000222501
0.000220758
0.000229219
0.000230033
0.000217511
0.000196656
0.000176008
0.000161774
0.000155917
0.000157819
0.000166115
0.000180171
0.000200909
0.000230647
0.000272763
0.000331588
0.000411879
0.000521118
0.000682497
0.000917181
0.00122665
0.00156947
0.00186619
0.00209843
0.00123839
0.00445923
0.00590145
0.00624466
0.00599797
0.00545155
0.00468105
0.0038036
0.00311555
0.0025202
0.00153187
0.000756828
0.000418455
0.000309332
0.000278609
0.000272539
0.000271156
0.000265759
0.000254551
0.000240816
0.000228098
0.000218555
0.000212595
0.000209929
0.0002104
0.000214428
0.000223381
0.000239826
0.000267843
0.000313641
0.000383764
0.000485045
0.000625424
0.000805874
0.00100075
0.00114397
0.00115483
0.000998206
0.000644762
0.00360281
0.0105653
0.00962547
0.00794017
0.00621395
0.00424287
0.00255673
0.00148847
0.000975212
0.000663657
0.000515951
0.000463096
0.000449895
0.000451047
0.000454086
0.000452456
0.000442498
0.00042353
0.00040144
0.000379977
0.000360119
0.000342082
0.000326294
0.000313752
0.000306096
0.00030542
0.00031415
0.000335188
0.000372917
0.000433091
0.0005222
0.000646201
0.000805283
0.000987871
0.00113668
0.00126589
0.000847767
0.000670904
0.00410404
0.0043602
0.00462357
0.00648041
0.00490222
0.00284101
0.00146834
0.00103945
0.000781092
0.000651364
0.000576206
0.000507307
0.000450455
0.000410935
0.00038451
0.000363173
0.000341498
0.000317459
0.000293148
0.000273521
0.000257918
0.000246703
0.000239566
0.000236158
0.000236425
0.000240648
0.000249406
0.000263609
0.000284723
0.000315327
0.000356264
0.000409397
0.000477214
0.000562824
0.000669386
0.00081914
0.000889375
0.000836762
0.000675577
0.00053267
)
;

boundaryField
{
    floor
    {
        Cmu             0.09;
        kappa           0.41;
        E               9.8;
        type            epsilonWallFunction;
        value           nonuniform List<scalar> 
36
(
0.000340449
5.00703e-05
8.09776e-05
0.00011715
0.000131411
0.000124772
0.000103004
8.22471e-05
6.61507e-05
5.39501e-05
4.45978e-05
3.73383e-05
3.16544e-05
2.70883e-05
2.33034e-05
2.00342e-05
1.70569e-05
1.53966e-05
1.1974e-05
1.1974e-05
2.66451e-05
4.37564e-05
6.50703e-05
0.000155563
0.000178573
0.000224936
0.000340449
0.000656834
0.00042517
0.00025206
5.00703e-05
0.00025206
4.81964e-05
0.000351581
0.000149071
0.000472067
)
;
    }
    ceiling
    {
        Cmu             0.09;
        kappa           0.41;
        E               9.8;
        type            epsilonWallFunction;
        value           nonuniform List<scalar> 
43
(
0.00410404
0.0043602
0.00462357
0.00648041
0.00490222
0.00284101
0.00146834
0.00103945
0.000781092
0.000651364
0.000576206
0.000507307
0.000450455
0.000410935
0.00038451
0.000363173
0.000341498
0.000317459
0.000293148
0.000273521
0.000257918
0.000246703
0.000239566
0.000236158
0.000236425
0.000240648
0.000249406
0.000263609
0.000284723
0.000315327
0.000356264
0.000409397
0.000477214
0.000562824
0.000669386
0.00081914
0.000889375
0.000836762
0.000675577
0.00053267
0.010492
0.0185689
0.00360281
)
;
    }
    sWall
    {
        Cmu             0.09;
        kappa           0.41;
        E               9.8;
        type            epsilonWallFunction;
        value           uniform 0.00410404;
    }
    nWall
    {
        Cmu             0.09;
        kappa           0.41;
        E               9.8;
        type            epsilonWallFunction;
        value           nonuniform List<scalar> 6(0.000224936 0.000252192 0.000431189 0.000644762 0.000670904 0.00053267);
    }
    sideWalls
    {
        type            empty;
    }
    glass1
    {
        Cmu             0.09;
        kappa           0.41;
        E               9.8;
        type            epsilonWallFunction;
        value           nonuniform List<scalar> 9(0.00051493 0.00123126 0.00216839 0.0034148 0.00508506 0.00738251 0.0102615 0.0110989 0.010492);
    }
    glass2
    {
        Cmu             0.09;
        kappa           0.41;
        E               9.8;
        type            epsilonWallFunction;
        value           nonuniform List<scalar> 2(0.00159048 0.00123839);
    }
    sun
    {
        Cmu             0.09;
        kappa           0.41;
        E               9.8;
        type            epsilonWallFunction;
        value           nonuniform List<scalar> 
14
(
0.00051493
0.000669671
0.000723117
0.000837026
0.000954862
0.00108095
0.00122603
0.00136789
0.00148243
0.00153824
0.00150486
0.00135572
0.000940075
0.000569645
)
;
    }
    Table_master
    {
        Cmu             0.09;
        kappa           0.41;
        E               9.8;
        type            epsilonWallFunction;
        value           nonuniform List<scalar> 9(0.000236455 0.000157886 0.000107908 7.63731e-05 5.60581e-05 4.25911e-05 3.34678e-05 2.71807e-05 2.29696e-05);
    }
    Table_slave
    {
        Cmu             0.09;
        kappa           0.41;
        E               9.8;
        type            epsilonWallFunction;
        value           nonuniform List<scalar> 9(0.000326598 0.00025126 0.000207708 0.000178817 0.000156026 0.000135347 0.000117273 9.98945e-05 8.17867e-05);
    }
    inlet
    {
        type            turbulentMixingLengthDissipationRateInlet;
        mixingLength    0.01;
        phi             phi;
        k               k;
        value           uniform 0.000471671;
    }
    outlet
    {
        type            zeroGradient;
    }
}


// ************************************************************************* //
