/*--------------------------------*- C++ -*----------------------------------*\
  =========                 |
  \\      /  F ield         | OpenFOAM: The Open Source CFD Toolbox
   \\    /   O peration     | Website:  https://openfoam.org
    \\  /    A nd           | Version:  6
     \\/     M anipulation  |
\*---------------------------------------------------------------------------*/
FoamFile
{
    version     2.0;
    format      ascii;
    class       volScalarField;
    location    "690";
    object      nut;
}
// * * * * * * * * * * * * * * * * * * * * * * * * * * * * * * * * * * * * * //

dimensions      [0 2 -1 0 0 0 0];

internalField   nonuniform List<scalar> 
458
(
0.00113317
0.00123689
0.00126896
0.00133236
0.00139216
0.00145093
0.00151313
0.00156937
0.00161201
0.00163199
0.0016201
0.00156471
0.00138494
0.00117196
0.000987176
0.00052108
0.000611645
0.000691764
0.000718765
0.000706451
0.000662717
0.000614823
0.00057177
0.000534205
0.000501358
0.000472529
0.000447221
0.000424591
0.000403816
0.000383974
0.000363923
0.00035171
0.000323438
0.00151529
0.00345623
0.00321108
0.0036852
0.0041633
0.00463336
0.00499164
0.00534684
0.00570151
0.00601289
0.00623914
0.00633721
0.00619867
0.00554074
0.00358442
0.00122893
0.00106308
0.000893055
0.000514497
0.00130067
0.00191408
0.00237334
0.00247668
0.0017696
0.00148822
0.00130237
0.00116675
0.00106326
0.000980854
0.000906846
0.00083672
0.00076581
0.000702052
0.000647957
0.000789389
0.000422264
0.00182989
0.00460282
0.00381616
0.00455064
0.00483521
0.0050369
0.00520688
0.0054395
0.00575009
0.00612662
0.00654332
0.00693649
0.00715123
0.00687226
0.00596532
0.00444206
0.00323072
0.000997818
0.000749627
0.0014333
0.00215915
0.00284068
0.00295048
0.000874231
0.000764114
0.000673073
0.000599824
0.000541074
0.000493723
0.000455603
0.000425074
0.000401879
0.000449842
0.000525705
0.000928131
0.000498188
0.00212896
0.0057925
0.00368734
0.0046017
0.00466062
0.00461352
0.0046575
0.00483132
0.00512772
0.00555386
0.00609144
0.00663683
0.0069904
0.00694393
0.0065446
0.00574692
0.0045305
0.00233355
0.00110081
0.00162926
0.00238877
0.00324405
0.00389645
0.00380235
0.0009736
0.000892107
0.00083726
0.000796489
0.000761101
0.000725872
0.000692007
0.000655981
0.000613675
0.000574272
0.000574904
0.00111753
0.000568644
0.00243114
0.00738792
0.00378663
0.00435523
0.00439911
0.00421954
0.0042408
0.00443132
0.00473791
0.00519566
0.00579136
0.00636299
0.00666476
0.00666038
0.006456
0.00607726
0.00534999
0.00412044
0.00388843
0.00426158
0.00478354
0.00523673
0.00545191
0.00531156
0.00444883
0.00402591
0.00379639
0.00362951
0.00345723
0.0032219
0.00285725
0.00240435
0.00190396
0.0014327
0.00107109
0.0010642
0.000952962
0.000760352
0.000796131
0.000859803
0.00275283
0.00919241
0.0049986
0.00405558
0.00426039
0.00414438
0.00411316
0.00432479
0.0046316
0.00509746
0.0056932
0.0062378
0.00648511
0.00641868
0.00626337
0.00617279
0.00602789
0.00574613
0.00596966
0.00641919
0.00667621
0.006683
0.00646778
0.00608663
0.00560154
0.0052311
0.00495821
0.00472439
0.00449603
0.00425204
0.00392027
0.00347006
0.00290904
0.00229078
0.00173986
0.00126236
0.00109185
0.000996983
0.00126054
0.000893215
0.00307219
0.0105498
0.0073423
0.00473554
0.00420642
0.00434091
0.00433937
0.00444888
0.0047075
0.00515716
0.00575401
0.00629092
0.00648304
0.00635902
0.00632025
0.0066081
0.00691023
0.00711992
0.00746428
0.0076497
0.00752347
0.00714638
0.0066134
0.00602189
0.00547785
0.00507588
0.0047898
0.00455992
0.00435709
0.00417702
0.00401555
0.00375925
0.00334773
0.00281677
0.0022916
0.00180475
0.00152585
0.00144799
0.00140283
0.00106807
0.00315359
0.0097847
0.00815733
0.00659524
0.00559946
0.00518493
0.00479023
0.00469323
0.00489624
0.00534749
0.00596058
0.00648939
0.00661056
0.00649784
0.00683769
0.00730459
0.00757607
0.0077624
0.0078703
0.00770234
0.00723941
0.00658497
0.00586772
0.00520988
0.00470389
0.00436312
0.00412859
0.00395166
0.00381876
0.0037352
0.00370974
0.00371719
0.00355177
0.00321714
0.00291796
0.00278337
0.00292962
0.00322331
0.00399836
0.00165027
0.00309503
0.00374375
0.00419838
0.00437168
0.00433252
0.00428295
0.00437496
0.00466471
0.0050866
0.00564715
0.00630236
0.00679203
0.00679363
0.00688617
0.00716541
0.00731709
0.00735771
0.00732614
0.00712561
0.0066707
0.00602061
0.00531237
0.00467794
0.00418986
0.003846
0.00359795
0.0033978
0.00322256
0.00306727
0.00293125
0.0028108
0.00269767
0.00260444
0.0025319
0.00249807
0.00249185
0.00244963
0.00232595
0.00216373
0.00151821
0.00156741
0.0026634
0.00356404
0.00429139
0.00494824
0.00545214
0.00577837
0.00621307
0.00669858
0.00706843
0.00701675
0.00687772
0.00664668
0.00642001
0.0062327
0.00600472
0.00565605
0.00518725
0.00468314
0.00423622
0.00388546
0.00362089
0.00341025
0.00322378
0.00304579
0.00287555
0.00272229
0.00259978
0.00252207
0.00249157
0.00248653
0.00249343
0.00249587
0.00245898
0.00233474
0.00210864
0.00181862
0.00122137
0.00216734
0.00429629
0.00539567
0.00612221
0.00644849
0.00599842
0.00556921
0.0057535
0.00573173
0.00571867
0.00562882
0.00542058
0.00520669
0.00504278
0.00488883
0.00469339
0.00443346
0.00412461
0.0038356
0.00359391
0.00339751
0.00323418
0.00309239
0.00296607
0.00285502
0.00276187
0.00268799
0.00262983
0.00260258
0.00261219
0.00265108
0.00270617
0.00275704
0.00278449
0.00275211
0.00270764
0.0023345
0.00123765
0.00226351
0.00230966
0.00235525
0.0026358
0.00240165
0.00200234
0.00160689
0.00143212
0.001302
0.00122552
0.00117645
0.00112755
0.00108376
0.00105109
0.00102805
0.00100868
0.000988196
0.000964442
0.000939168
0.000917723
0.000899929
0.000886692
0.000878058
0.000873874
0.000874204
0.000879377
0.000889918
0.000906499
0.000930082
0.000962278
0.00100224
0.00104977
0.0011048
0.00116727
0.00123672
0.00132281
0.00135959
0.00133223
0.00124052
0.00114604
)
;

boundaryField
{
    floor
    {
        type            nutkWallFunction;
        Cmu             0.09;
        kappa           0.41;
        E               9.8;
        value           nonuniform List<scalar> 
36
(
0.0001192
6.24122e-05
7.38086e-05
8.37194e-05
8.70276e-05
8.55208e-05
8.01431e-05
7.42046e-05
6.88183e-05
6.40779e-05
5.98992e-05
5.62036e-05
5.29359e-05
4.99945e-05
4.72765e-05
4.46638e-05
4.20062e-05
4.0378e-05
3.658e-05
3.65799e-05
4.969e-05
5.9493e-05
6.84241e-05
9.20936e-05
9.6427e-05
0.000104083
0.0001192
0.000147308
0.000128102
0.000108052
6.24121e-05
0.000108052
6.15745e-05
0.000120454
9.07903e-05
0.0001325
)
;
    }
    ceiling
    {
        type            nutkWallFunction;
        Cmu             0.09;
        kappa           0.41;
        E               9.8;
        value           nonuniform List<scalar> 
43
(
0.000261667
0.000266614
0.000271494
0.000301403
0.000276582
0.000233583
0.000190055
0.000170451
0.000155682
0.000146923
0.000141271
0.000135612
0.00013052
0.000126706
0.000124009
0.000121734
0.000119325
0.000116523
0.000113533
0.000110989
0.000108872
0.000107295
0.000106265
0.000105765
0.000105804
0.000106422
0.00010768
0.000109655
0.000112456
0.000116267
0.000120977
0.000126552
0.000132971
0.000140213
0.000148213
0.000158062
0.000162247
0.000159135
0.000148651
0.000137758
0.000349912
0.000416756
0.000251235
)
;
    }
    sWall
    {
        type            nutkWallFunction;
        Cmu             0.09;
        kappa           0.41;
        E               9.8;
        value           uniform 0.000261739;
    }
    nWall
    {
        type            nutkWallFunction;
        Cmu             0.09;
        kappa           0.41;
        E               9.8;
        value           nonuniform List<scalar> 6(0.000104085 0.000108076 0.000128696 0.000146462 0.000148334 0.000137768);
    }
    sideWalls
    {
        type            empty;
    }
    glass1
    {
        type            nutkWallFunction;
        Cmu             0.09;
        kappa           0.41;
        E               9.8;
        value           nonuniform List<scalar> 9(0.000136395 0.000180072 0.000215097 0.000247785 0.000280317 0.000314481 0.000347988 0.00035648 0.0003504);
    }
    glass2
    {
        type            nutkWallFunction;
        Cmu             0.09;
        kappa           0.41;
        E               9.8;
        value           nonuniform List<scalar> 2(0.000195017 0.000180253);
    }
    sun
    {
        type            nutkWallFunction;
        Cmu             0.09;
        kappa           0.41;
        E               9.8;
        value           nonuniform List<scalar> 
14
(
0.00013626
0.000148221
0.000151897
0.000159135
0.000165926
0.000172568
0.000179567
0.000185867
0.000190627
0.000192852
0.000191528
0.000185345
0.000165108
0.000140745
)
;
    }
    Table_master
    {
        type            nutkWallFunction;
        Cmu             0.09;
        kappa           0.41;
        E               9.8;
        value           nonuniform List<scalar> 9(0.000105805 9.25512e-05 8.14226e-05 7.23381e-05 6.49545e-05 5.8932e-05 5.40316e-05 5.007e-05 4.70363e-05);
    }
    Table_slave
    {
        type            nutkWallFunction;
        Cmu             0.09;
        kappa           0.41;
        E               9.8;
        value           nonuniform List<scalar> 9(0.0001176 0.000107939 0.000101379 9.64701e-05 9.21854e-05 8.78965e-05 8.37504e-05 7.93129e-05 7.40643e-05);
    }
    inlet
    {
        type            calculated;
        value           uniform 0.000167705;
    }
    outlet
    {
        type            calculated;
        value           nonuniform List<scalar> 2(0.00226351 0.00230966);
    }
}


// ************************************************************************* //
