/*--------------------------------*- C++ -*----------------------------------*=========                 |
  \      /  F ield         | OpenFOAM: The Open Source CFD Toolbox
   \    /   O peration     | Website:  https://openfoam.org
    \  /    A nd           | Version:  6
     \/     M anipulation  |
\*---------------------------------------------------------------------------*/
FoamFile
{
    version     2.0;
    format      ascii;
    class       volScalarField;
    location    "690";
    object      PMV;
}
// * * * * * * * * * * * * * * * * * * * * * * * * * * * * * * * * * * * * * //

dimensions      [0 0 0 0 0 0 0];

internalField   nonuniform List<scalar> 
458
(
1.3228560867942405
1.0769512297923174
1.0443324618167025
1.015390233265868
0.9968555292513122
0.9881415562054393
0.9911123542324431
1.0052466093119734
1.0343427247033643
1.0822401774822967
1.152715717319856
1.2235733202767005
1.2393280444814798
1.2474438023688466
1.2598557100956296
1.37392175051949
1.360561288429181
1.3567438577453632
1.3634243164333508
1.36819594314418
1.372013165733737
1.3676704575159948
1.3638940568075606
1.3644284179380304
1.366818508872395
1.3693650531014232
1.372661182640436
1.3770480335063804
1.3835233137630838
1.3948264915764121
1.4030254095886565
1.4073190218812375
1.4216303466272862
1.255725097886252
1.0888554956842866
1.076453600467553
1.0478741851602487
1.0309975968185667
1.0230201882850698
1.0240413485276976
1.0323310831286043
1.0465611915198232
1.0711771026808687
1.1115321045725899
1.1724087596799693
1.235986199242298
1.2469664108809009
1.2541272026621062
1.2118298101015608
1.2116282823054743
1.2334584003984363
1.327270753918209
1.347677188934588
1.347199985406048
1.3548351168856179
1.3577693072443846
1.3573709065544455
1.3574438277297816
1.3586090857656354
1.3593401574553559
1.3600881367859643
1.3605355710070364
1.3613643616856153
1.3629582965124822
1.365619536618924
1.3742384116180466
1.3825101605353902
1.3891897805295468
1.3724432793775818
1.2875154504073816
1.0797878773710297
1.109114500822808
1.0939193564782315
1.0871183790685208
1.0829565902430893
1.0832926500473812
1.0796411642165493
1.0664752666476256
1.0552970766603835
1.0660910394500829
1.1148218337714348
1.2063528146979112
1.2531724404600333
1.2598557100956296
1.2627199210790263
1.2640666416543649
1.2439598159176066
1.237798368382807
1.302274761510468
1.3115940948340714
1.3204538890629598
1.3312146302896113
1.3352679899912407
1.3578030132852055
1.372013165733737
1.372013165733737
1.372013165733737
1.372013165733737
1.3724903135933593
1.3724903135933593
1.3729674603451656
1.3758303175112687
1.3791702666555057
1.3720893590063707
1.2989216982788971
1.3617628496692964
1.0729061161418458
1.132712089880759
1.1434580384659543
1.1604747075937243
1.1719869951780808
1.173975727476075
1.1505018909032698
1.093782134178103
1.0401979309349425
1.0276651326142705
1.0730698853774305
1.1658679064471866
1.2596824611931239
1.2732217791517393
1.2746538199200472
1.24964330070847
1.2249548046123717
1.174096643297017
1.240485641018005
1.2763603536615131
1.302256718633802
1.3323019655746449
1.3663761228885307
1.39298228341887
1.3866717813688005
1.3803769650519682
1.379106772806753
1.3802163045123712
1.3826485087102456
1.3891479874175405
1.4022909633623046
1.4255222297252372
1.424508072857522
1.4106584301863594
1.3513834447318906
1.254833860209443
1.455864112873381
1.081134153568827
1.1502121821149576
1.1873814924187092
1.242218543695167
1.2889019584811099
1.2984050079854332
1.2270803164859543
1.1164097469426022
1.0267103582703454
0.9990983928446152
1.0470421600802935
1.1414305817518604
1.2447688477845638
1.2927923426907726
1.2947015880645636
1.2838276267338482
1.2553569927800863
1.2537461383761765
1.2698680406844243
1.300781182122374
1.3411187834610478
1.3824589616037173
1.4227609375768868
1.4497726081379938
1.4617332031744257
1.4620485495413715
1.4615329476792696
1.4597316417810584
1.4567552004656075
1.4541538211830471
1.4539152336908847
1.4530821391551296
1.4378170661210918
1.4114386925634879
1.3357788490402707
1.3368304715609172
1.3335826475472152
1.4177240296009728
1.2960069498376923
1.553473105238142
1.111221772553224
1.1809119574103097
1.2194184205301357
1.3038013252571714
1.3801245277104905
1.416860028920696
1.2577713164637898
1.1153539269743813
1.0101109410598161
0.9793223452445345
1.0314269076533185
1.1371442523378676
1.2559302249728226
1.3204749781495826
1.3266792740083542
1.3242930257104037
1.3257247776049415
1.3379268021081467
1.3583730775094218
1.3920216550820856
1.4230614174613119
1.4502495560356845
1.4726645559440572
1.4893545402756811
1.5007980554029505
1.5079498084695513
1.5127174507311514
1.514147712976106
1.513194206379725
1.5089033493577466
1.501751642394921
1.4843290669117475
1.454413455271939
1.417849794122862
1.347003348484095
1.3407382005199031
1.3335508415986954
1.3585738563663003
1.3663284490688417
1.6458365013794074
1.1980101160009489
1.3002023119128037
1.2778758044291094
1.3327082167958535
1.4120895868396728
1.3491365516393405
1.227368500298355
1.0856120513360947
0.9810736934235245
0.9602302866242572
1.0309004613167794
1.1591790891653841
1.3024668449443446
1.3586525816229935
1.3696274098673966
1.3701045632450093
1.3758303175112687
1.393960798923972
1.419722234565749
1.4473878484381364
1.4740951954493828
1.4965068387659792
1.513670960461919
1.525112584097998
1.532739819721971
1.5365532808367766
1.537506629641743
1.5365532808367766
1.5332165081087676
1.5270194319002863
1.517961676435668
1.5069962613904575
1.490057110489977
1.4456285159167743
1.383380044592335
1.354082382348215
1.3335305157538246
1.3053287926150345
1.4116051429731828
1.7864277357093108
1.5718583126019194
1.5134641198418746
1.396323871769056
1.3749244079286496
1.3638391472622395
1.2937386866509986
1.152963119237192
1.0040862062639673
0.9216720083115758
0.9411704477034858
1.0580428420618406
1.2269078595862326
1.3672416265175749
1.408273144631541
1.420676293108053
1.4254465102312206
1.4349865616804256
1.4545420261286983
1.4779101710669964
1.5007980554029505
1.5208220825758687
1.5355999254282944
1.5460864694091625
1.5518060597172745
1.5541891499531866
1.5546657628581149
1.553712535331732
1.5508528116577498
1.5465631112509557
1.5403666362953388
1.5317864380394288
1.521298811364743
1.5093801174760602
1.4960300293575428
1.4812481989762685
1.4718754324722656
1.4444153754404787
1.3652183004068155
1.278825196320476
1.9961108107756373
1.848067129656866
1.6863122336435834
1.5429072805442985
1.4509515076652948
1.379644538961801
1.1875452243318143
0.9689725892461785
0.8368906499316214
0.8365216114248503
0.9523054790859035
1.155897489015057
1.3519719739495673
1.4316476022619997
1.4612189816072227
1.4740951954493828
1.482678760575196
1.495076406024653
1.5117639347417913
1.5289262538456658
1.5441798851982875
1.555618983511441
1.5619072290302447
1.5571022750307355
1.5518120289337745
1.5449101415335902
1.5370914860650904
1.5284283028414514
1.518148161754572
1.506665556388403
1.4934837055704562
1.4785391143137991
1.464498643928843
1.4481443526351154
1.4285927274900896
1.4107290055993091
1.399209103721414
1.3944425277428563
1.3844716498054401
1.3534040242998988
-1.6596734956352004
-0.7532536038279604
-0.19410080641027774
0.00786371515367933
0.1496427893508339
0.332368470301895
0.5700763066544641
0.8445404280364791
1.1365913526546467
1.3491087933045194
1.4502495560356845
1.4705582796803072
1.4795029195625224
1.4878953482148893
1.4984542649197856
1.510671986865958
1.5224391016961698
1.5308271783316685
1.5350332953330832
1.53526002325004
1.5324782762394331
1.5272958366583174
1.52104207607279
1.5135609208041267
1.5048525235554167
1.4961531028302302
1.4874848699111929
1.4795067382321998
1.4737435646286732
1.469869123757118
1.4670780914630346
1.465213643874387
1.4632457979982982
1.4639154968018127
1.4743764228774026
1.5112108001830964
1.5778947355266066
1.425478221473662
-1.6710230687300847
-0.5857287423979655
-0.009602597030842937
0.3134268668660452
0.5205725276047826
0.7779721077969018
1.0444986445831983
1.2760858531934864
1.3724442498337805
1.4154274687048878
1.4435935116950758
1.4602763538732466
1.471984336004488
1.4809964187212072
1.4890531933998106
1.4964367978558402
1.5025070723715641
1.507213534508978
1.5099815736071482
1.510470097496537
1.508803254488844
1.5065843263662109
1.5034812379409732
1.5001494693163522
1.4967623923305655
1.4935039812800517
1.4910899158768405
1.4899848929623525
1.4901479778802582
1.4928228269778379
1.4996258775575977
1.5112409768369475
1.5240159495535945
1.533862207745988
1.545020788954237
1.5797209900522862
1.5278731721827303
1.4686961908116654
-1.1335369548964482
-1.1327517235804228
-1.0093245355540876
-0.21084219100012863
0.37099965670637236
0.7833705988200601
1.0816044449152824
1.2306340604940693
1.3193070904192281
1.3732065709086312
1.4080868506268704
1.432453443178298
1.4472797789019887
1.4560072156339183
1.4614460158751768
1.4643168591584546
1.4660149904287982
1.4659018945258526
1.4643372926735982
1.4621881945803608
1.4591695030017773
1.456502184123577
1.4538133168726044
1.451196605749274
1.4492903683559553
1.4487941371428075
1.4489395890448664
1.450616416645571
1.4543543558032064
1.460898702068328
1.4703621601778163
1.4852676908023565
1.508627203583632
1.549222705420041
1.609462936988257
1.6156560068367625
1.5876112735049872
1.5272596107106577
1.4758527520294111
1.4890329890827154
)
;

boundaryField
{
    ".*"
    {
        type            zeroGradient;
    }
}


// ************************************************************************* //
