/*--------------------------------*- C++ -*----------------------------------*=========                 |
  \      /  F ield         | OpenFOAM: The Open Source CFD Toolbox
   \    /   O peration     | Website:  https://openfoam.org
    \  /    A nd           | Version:  6
     \/     M anipulation  |
\*---------------------------------------------------------------------------*/
FoamFile
{
    version     2.0;
    format      ascii;
    class       volScalarField;
    location    "690";
    object      PPD;
}
// * * * * * * * * * * * * * * * * * * * * * * * * * * * * * * * * * * * * * //

dimensions      [0 0 0 0 0 0 0];

internalField   nonuniform List<scalar> 
458
(
41.44447242004689
29.466531048724846
28.020514285359624
26.76980572728668
25.9852444064
25.620888067749846
25.74478009160744
26.338827898221027
27.585332209492464
29.70454369819646
32.96637428377072
36.40308949327806
37.18667399741269
37.59289989669467
38.21745524944392
44.1211350408416
43.41619421432529
43.2153491051527
43.566995974725806
43.8186465420237
44.02024483071784
43.79091366329766
43.59175198889855
43.61991831220754
43.74596157437909
43.88036415182655
44.05449296253438
44.28652563908388
44.62959821161475
45.23005030502797
45.666803589535135
45.89590992682018
46.661381709865765
38.00917115662216
30.003615224068824
29.444187126470467
28.175674843627405
27.440425734034378
27.096521279786586
27.140411809996777
27.498141248114976
28.118100395354702
29.20780347645153
31.04018560109644
33.90650400344708
37.019905636483905
37.568956962134884
37.92871397703203
35.823423527826165
35.81350959975798
36.893958297321014
41.673887876714645
42.739391879955804
42.71438323231564
43.115023755520774
43.26927500686057
43.248321827681416
43.252156773976814
43.313451025289545
43.351918890260805
43.39128629863337
43.41484028089625
43.45847915792094
43.54243986192147
43.68272044960016
44.13788005300716
44.575874771486966
44.93036742872073
44.04297583843561
39.622990520548875
29.594064114030658
30.928844914347167
30.233568396973823
29.924935254964424
29.73685863880037
29.75202330313479
29.587461128660877
28.997991527111424
28.502338121419
28.980880596065376
31.192005573278124
35.5543972313846
37.88067085327752
38.21745524944392
38.362133464671
38.43023031892157
37.41830139725594
37.110301662208684
40.380349527055145
40.86106419583045
41.31980710458102
41.879173410243475
42.09048260434405
43.27104784759122
44.02024483071784
44.02024483071784
44.02024483071784
44.02024483071784
44.045461731287595
44.045461731287595
44.07068240571686
44.22208520870378
44.398890571090185
44.02427132959479
40.20785819271486
43.479465351262384
29.28515427386631
32.023907337113755
32.528610960315746
33.33534815348713
33.88624427704063
33.98182163998486
32.861443349646876
30.22732542575922
27.839960029368797
27.29647771108597
29.292486269829496
33.59292092780123
38.20871061928953
38.89434442735657
38.96712569862765
37.70328900507249
36.471530874782495
33.98763665801005
37.24451060694558
39.05392220655817
40.37942067931073
41.93582610757558
43.72262453348832
45.13194742527926
44.7966528363058
44.46281387008802
44.39552772175848
44.45430172009328
44.583209850941195
44.92814726333191
45.627639953700154
46.87000969136224
46.815626547189666
46.074278501848084
42.93376941952411
37.964287570577945
48.50256794145468
29.65468980808423
32.84772317115423
34.62920185960954
37.3311570509318
39.69392599344869
40.181300482730855
36.57693465629727
31.265416476939436
27.25531117924382
26.07949293658976
28.139183498682073
32.433103517200266
37.45881749453407
39.89319964383811
39.99112197605798
39.4345346696946
37.99063058333951
37.90953623694172
38.72409044933025
40.303484499066116
42.396065985666674
44.57316033396539
46.72196839405005
48.17401142164544
48.819471125589374
48.836507515136525
48.80865292511809
48.711359574357374
48.55066125221771
48.410282757005156
48.39741117226234
48.35247090168696
47.53029764137309
46.11597694911694
42.11713775646382
42.17202456199716
42.00258288270566
46.45217426289083
40.05811971568895
53.80265424019682
31.025882558568796
34.31610857516074
36.19756390957057
40.45896316996536
44.44943937031187
46.405928475172544
38.112296889527364
31.216595449142247
26.545019092224678
25.25509191338051
27.458999878104237
32.23162132952909
38.01950440943735
41.32090102937802
41.643127505632066
41.51910140439977
41.59350322917334
42.22926789259692
43.3010346801854
45.08086707979596
46.73807338994948
48.19972294477638
49.41054734618469
50.314865459636536
50.93602271719938
51.32460838712583
51.58379959041105
51.66157600852471
51.60972412340653
51.37643850908389
50.98781917785047
50.04235195577945
48.424290428506815
46.458906646879505
42.70407939289066
42.376168121262786
42.00092457191052
43.31159755048306
43.72010981453386
58.82510491319979
35.146253858951525
40.2737070859973
39.13105857742282
41.95699880325147
46.15076810830529
42.815898733803515
36.59123512073671
29.8567930056587
25.327494922367976
24.473508586431493
27.43622410590274
33.27360517242053
40.39023843451822
43.315739442326695
43.89421724417289
43.91941514329372
44.22208520870378
45.1839932879137
46.55916587039357
48.04548807509685
49.487979932362535
50.70299964152141
51.6356495995297
52.25811723662862
52.673323832517504
52.88097967105184
52.93289820235744
52.88097967105184
52.699279102909124
52.361904089348286
51.86901963143414
51.27278248814548
50.35297715920625
47.95070953721009
44.62200022852611
43.075477500110516
41.999864825708705
40.53767481612718
46.12487339517917
66.30649863093512
54.804362406332245
51.624401659230095
45.30974121005766
44.17416121739532
43.58885797476637
39.941725825536274
32.97811022620236
26.28977205067754
22.93869688788024
23.707466650356352
28.623674779580398
36.568377956691734
43.768285324361756
45.94685694284815
46.61026808253555
46.8659488670719
47.37812885924788
48.431227277485924
49.6945440332637
50.93602271719938
52.02463793177096
52.829062885075665
53.4002297445282
53.711828774298354
53.84166704787922
53.86763489053987
53.815699253825834
53.659894099859564
53.42619533053743
53.08866343387594
52.621414860992736
52.05057710020611
51.402355128130125
50.677114552883815
49.87537660602836
49.36784368307184
47.88537459985346
43.661562372789895
39.179410546802046
76.57460996200356
69.46399259037108
61.00812007447543
53.227048615723774
48.23756831504503
44.424011715670254
34.637141790598406
24.82963982339342
19.77544144315435
19.762321137879383
24.153262342254948
33.11745375392543
42.96465878796437
47.19874503745099
48.79169260072737
49.487979932362535
49.952900806615936
50.625348315695796
51.53195339483133
52.465701248640165
53.296369777807
53.91957067955913
54.26219004435819
54.000387986739845
53.712153990520044
53.336149383330564
52.91028959752877
52.4385943734192
51.87916423604412
51.254809537555616
50.53890321652714
49.72860954685318
48.96890332592535
48.0862524088861
47.034739574516195
46.078049820597414
45.463387778721064
45.20962107593856
44.679899484814754
43.03984762415199
59.57326579460941
16.948769318610246
5.781181641677605
5.001280081395947
5.464004545536014
7.297362176659107
11.807310775139399
20.048691981815182
32.205674921481446
42.81444313573908
48.19972294477638
49.296577125288984
49.780818145265584
50.235720631658886
50.80873599456582
51.472585351713214
52.112624595626066
52.569188388253345
52.798206994345264
52.81055338877824
52.65908327406061
52.37694937145248
52.036607834877444
51.62966564702214
51.156286019542485
50.68379584806819
50.213459404772586
49.78102501386708
49.468946552837885
49.259295122438566
49.10834731473363
49.00755003166539
48.90119643081739
48.93738684475663
49.503203179270535
51.50187935616369
55.13320311373321
46.867649527236104
60.185549404170445
12.18984779490927
5.001908798291566
7.041989446690749
10.667378832214894
17.753291338727834
28.027784462867103
39.03995603371589
44.04302712944555
46.32927211702608
47.841121279991455
48.74077773136506
49.37373672419594
49.86173384646982
50.298519581694904
50.699197165039436
51.028855858432756
51.28459101702196
51.435051239284576
51.46160945979369
51.37099759797883
51.250394984401105
51.081779401516656
50.900796089304436
50.716873734680306
50.54000359644461
50.409008801761495
50.3490594870113
50.35790660265328
50.50303821125184
50.87236003323592
51.50352002996304
52.198434631446034
52.73443784210609
53.34217680514611
55.232679284352706
52.408375722154
49.19585102864028
32.06251658312141
32.02576195647971
26.51162427818838
5.9220147312823315
7.865421630580045
17.932462585921257
29.67588292521691
36.7534385260898
41.26033479852653
44.08332257593211
45.93690846019065
47.24202639717437
48.03966522353862
48.51029088733993
48.80395681156831
48.95907834718836
49.05086931145853
49.04475521493129
48.960182708972624
48.844052043603696
48.68100318886399
48.537004802648454
48.3919130222071
48.250783840983054
48.14801700484629
48.12127091330726
48.12911028024167
48.219501421729724
48.42110185960375
48.77439216873697
49.28596702966384
50.09323672742262
51.361428023404926
53.57108500981474
56.851427367638166
57.18804893156823
55.662384846142885
52.37497750432459
49.583129475263696
50.29742366627515
)
;

boundaryField
{
    ".*"
    {
        type            zeroGradient;
    }
}


// ************************************************************************* //
