/*--------------------------------*- C++ -*----------------------------------*\
  =========                 |
  \\      /  F ield         | OpenFOAM: The Open Source CFD Toolbox
   \\    /   O peration     | Website:  https://openfoam.org
    \\  /    A nd           | Version:  6
     \\/     M anipulation  |
\*---------------------------------------------------------------------------*/
FoamFile
{
    version     2.0;
    format      ascii;
    class       volScalarField;
    location    "690";
    object      T;
}
// * * * * * * * * * * * * * * * * * * * * * * * * * * * * * * * * * * * * * //

dimensions      [0 0 0 1 0 0 0];

internalField   nonuniform List<scalar> 
458
(
301.77
301.47
301.456
301.452
301.448
301.444
301.441
301.435
301.428
301.422
301.423
301.436
301.469
301.486
301.512
301.751
301.723
301.715
301.729
301.739
301.747
301.754
301.761
301.767
301.774
301.78
301.786
301.792
301.798
301.805
301.812
301.821
301.851
301.967
301.499
301.469
301.468
301.468
301.467
301.463
301.452
301.431
301.41
301.404
301.423
301.462
301.485
301.5
301.509
301.52
301.546
301.76
301.696
301.695
301.711
301.728
301.734
301.737
301.739
301.741
301.744
301.746
301.748
301.751
301.754
301.76
301.769
301.783
301.832
302.176
301.544
301.498
301.506
301.517
301.523
301.523
301.503
301.458
301.409
301.388
301.413
301.464
301.498
301.512
301.518
301.523
301.543
301.704
301.679
301.688
301.717
301.747
301.747
301.747
301.747
301.747
301.747
301.747
301.748
301.748
301.749
301.755
301.762
301.775
301.827
302.39
301.604
301.533
301.553
301.583
301.609
301.618
301.588
301.504
301.412
301.37
301.4
301.469
301.519
301.54
301.543
301.542
301.545
301.559
301.587
301.636
301.692
301.747
301.792
301.828
301.852
301.87
301.885
301.897
301.905
301.911
301.916
301.918
301.872
301.828
301.801
301.833
302.603
301.683
301.571
301.594
301.646
301.701
301.734
301.688
301.554
301.416
301.353
301.389
301.473
301.545
301.581
301.585
301.579
301.578
301.596
301.637
301.694
301.758
301.818
301.869
301.91
301.938
301.958
301.973
301.982
301.985
301.982
301.976
301.963
301.93
301.881
301.835
301.837
301.966
302.047
302.047
302.799
301.787
301.626
301.627
301.684
301.764
301.841
301.766
301.582
301.411
301.337
301.379
301.485
301.584
301.639
301.652
301.647
301.65
301.678
301.729
301.791
301.854
301.911
301.958
301.993
302.017
302.032
302.042
302.045
302.043
302.034
302.019
302
301.969
301.925
301.875
301.855
301.912
301.945
301.994
302.97
301.959
301.77
301.724
301.752
301.831
301.899
301.788
301.57
301.379
301.308
301.373
301.512
301.644
301.719
301.742
301.743
301.755
301.793
301.847
301.905
301.961
302.008
302.044
302.068
302.084
302.092
302.094
302.092
302.085
302.072
302.053
302.03
302.001
301.963
301.919
301.891
301.905
301.922
301.956
303.221
302.466
302.235
302.078
302.018
302.054
301.984
301.747
301.466
301.28
301.255
301.382
301.574
301.737
301.823
301.849
301.859
301.879
301.92
301.969
302.017
302.059
302.09
302.112
302.124
302.129
302.13
302.128
302.122
302.113
302.1
302.082
302.06
302.035
302.007
301.976
301.961
301.973
302.003
302.189
303.581
303.229
302.939
302.666
302.469
302.309
301.919
301.47
301.167
301.088
301.201
301.449
301.705
301.872
301.934
301.961
301.979
302.005
302.04
302.076
302.108
302.132
302.148
302.156
302.16
302.159
302.156
302.152
302.146
302.14
302.135
302.133
302.134
302.142
302.16
302.191
302.236
302.282
302.317
302.395
296.311
298.226
299.264
299.573
299.794
300.087
300.466
300.882
301.287
301.699
301.911
302.004
302.045
302.067
302.087
302.109
302.133
302.154
302.17
302.18
302.185
302.186
302.186
302.185
302.183
302.182
302.181
302.18
302.181
302.183
302.188
302.199
302.217
302.244
302.278
302.312
302.338
302.362
296.599
298.267
299.085
299.53
299.964
300.503
301.061
301.546
301.822
301.988
302.071
302.111
302.135
302.152
302.167
302.181
302.193
302.202
302.208
302.211
302.211
302.211
302.21
302.209
302.208
302.207
302.207
302.208
302.209
302.211
302.215
302.223
302.236
302.254
302.278
302.304
302.305
302.341
298.072
298.032
298.029
299.299
300.109
300.863
301.475
301.769
301.955
302.063
302.125
302.167
302.194
302.212
302.225
302.234
302.242
302.248
302.252
302.254
302.254
302.254
302.253
302.251
302.249
302.248
302.246
302.244
302.242
302.24
302.238
302.238
302.238
302.24
302.245
302.258
302.271
302.281
302.287
302.328
)
;

boundaryField
{
    floor
    {
        type            wallHeatTransfer;
        Tinf            uniform 305.2;
        alphaWall       uniform 0.24;
        value           nonuniform List<scalar> 
36
(
301.927
302.363
302.276
302.224
302.222
302.237
302.266
302.3
302.334
302.366
302.398
302.428
302.456
302.484
302.512
302.54
302.57
302.593
302.656
302.656
302.518
302.444
302.396
302.407
302.464
302.441
301.927
301.861
301.912
301.989
302.363
301.989
302.375
301.951
302.186
301.936
)
;
    }
    ceiling
    {
        type            wallHeatTransfer;
        Tinf            uniform 303.2;
        alphaWall       uniform 0.24;
        value           nonuniform List<scalar> 
43
(
298.37
298.328
298.32
299.5
300.281
301.014
301.608
301.89
302.069
302.172
302.231
302.272
302.3
302.318
302.331
302.341
302.35
302.357
302.363
302.367
302.369
302.369
302.369
302.368
302.367
302.365
302.362
302.359
302.355
302.35
302.346
302.341
302.338
302.335
302.336
302.343
302.353
302.364
302.373
302.416
303.564
303.228
296.995
)
;
    }
    sWall
    {
        type            wallHeatTransfer;
        Tinf            uniform 315.2;
        alphaWall       uniform 0.36;
        value           uniform 299.527;
    }
    nWall
    {
        type            wallHeatTransfer;
        Tinf            uniform 307.2;
        alphaWall       uniform 0.36;
        value           nonuniform List<scalar> 6(302.956 302.889 302.75 303.027 303.002 303.03);
    }
    sideWalls
    {
        type            empty;
    }
    glass1
    {
        type            wallHeatTransfer;
        Tinf            uniform 315.2;
        alphaWall       uniform 4.3;
        value           nonuniform List<scalar> 9(310.828 310.139 309.709 309.384 309.118 308.876 308.669 308.736 308.979);
    }
    glass2
    {
        type            wallHeatTransfer;
        Tinf            uniform 307.2;
        alphaWall       uniform 4.3;
        value           nonuniform List<scalar> 2(305.18 305.345);
    }
    sun
    {
        type            wallHeatTransfer;
        Tinf            uniform 305.2;
        alphaWall       uniform 0.24;
        value           nonuniform List<scalar> 
14
(
302.118
301.824
301.804
301.787
301.773
301.759
301.745
301.731
301.719
301.71
301.713
301.733
301.793
301.853
)
;
    }
    Table_master
    {
        type            zeroGradient;
    }
    Table_slave
    {
        type            zeroGradient;
    }
    inlet
    {
        type            fixedValue;
        value           uniform 293.15;
    }
    outlet
    {
        type            zeroGradient;
    }
}


// ************************************************************************* //
