/*--------------------------------*- C++ -*----------------------------------*\
  =========                 |
  \\      /  F ield         | OpenFOAM: The Open Source CFD Toolbox
   \\    /   O peration     | Website:  https://openfoam.org
    \\  /    A nd           | Version:  6
     \\/     M anipulation  |
\*---------------------------------------------------------------------------*/
FoamFile
{
    version     2.0;
    format      ascii;
    class       volScalarField;
    location    "100";
    object      alphat;
}
// * * * * * * * * * * * * * * * * * * * * * * * * * * * * * * * * * * * * * //

dimensions      [1 -1 -1 0 0 0 0];

internalField   nonuniform List<scalar> 
458
(
0.00177147
0.00236705
0.00229591
0.00218607
0.00207989
0.00198092
0.00189049
0.00180387
0.00171598
0.00162208
0.00151639
0.00138896
0.00121536
0.000854092
0.000632196
0.000402957
0.000330863
0.000253415
0.000215995
0.000195722
0.000189827
0.000195468
0.000210288
0.00023394
0.000266012
0.00030557
0.000351663
0.000403886
0.000463376
0.000529124
0.000594628
0.000638548
0.000560571
0.00251885
0.00340014
0.00364421
0.00359488
0.0034703
0.00335414
0.00322168
0.00306633
0.00289768
0.00271864
0.00251798
0.00225839
0.00189749
0.0014397
0.00146399
0.000722143
0.000742278
0.000618115
0.000513597
0.000947377
0.000717599
0.000553186
0.000448953
0.000406681
0.000402718
0.000418616
0.000459277
0.000531717
0.000638968
0.000778766
0.00094811
0.00114403
0.00143443
0.00166904
0.00210695
0.000698761
0.00302214
0.00427791
0.0041848
0.00385474
0.00363343
0.00353361
0.0034485
0.00336558
0.00326973
0.00314145
0.00295335
0.00265615
0.00222157
0.00176289
0.00226867
0.00229892
0.00190865
0.000752051
0.000594265
0.00132439
0.000987514
0.000650198
0.000367132
0.000204827
0.000197676
0.000208137
0.000230118
0.000265155
0.000314834
0.00038028
0.000463668
0.000569727
0.00147888
0.00163503
0.00193901
0.000741595
0.00322258
0.00520027
0.00441695
0.00357623
0.00323351
0.00320537
0.00326032
0.00331602
0.00332867
0.00327023
0.00310971
0.00279647
0.00236177
0.00219366
0.00287223
0.0021156
0.00136666
0.00117284
0.000686776
0.0012911
0.00174319
0.00147314
0.00111461
0.000801957
0.00055659
0.000553651
0.000541432
0.000519427
0.000488751
0.000453971
0.000429109
0.000442176
0.000518997
0.00154803
0.00149464
0.00133028
0.000821324
0.00336846
0.00567751
0.00399666
0.00281251
0.00264403
0.00282459
0.00303445
0.00320191
0.00328497
0.00326028
0.00309578
0.00276689
0.00247522
0.00269641
0.00329463
0.0029849
0.00254452
0.00218789
0.00213968
0.00250424
0.0028651
0.00285755
0.00284508
0.00286895
0.00286546
0.00284132
0.00278841
0.00271016
0.00261395
0.00251066
0.00240255
0.00225581
0.00206964
0.00197392
0.00171926
0.00153079
0.00139039
0.000876477
0.000874629
0.000783995
0.00350765
0.00553987
0.00321217
0.00250036
0.00306478
0.00301891
0.00303677
0.00314368
0.00319974
0.00315336
0.0029845
0.00274253
0.00268084
0.00317587
0.00373123
0.0037937
0.00373686
0.00369874
0.00374147
0.00385299
0.00395675
0.00396337
0.00396514
0.00395801
0.00390551
0.00382242
0.00371506
0.00358778
0.00344802
0.00331036
0.00319961
0.00313812
0.00308817
0.00292727
0.00257109
0.00219973
0.001967
0.00189992
0.00172124
0.000836967
0.00367552
0.00491606
0.00286977
0.00224513
0.00311762
0.00308723
0.00305067
0.00308436
0.00309598
0.00303738
0.00291224
0.00281584
0.00298764
0.00365293
0.00423679
0.00444206
0.00452354
0.00462472
0.00471422
0.00476409
0.00479104
0.00479276
0.00477438
0.00472549
0.00464108
0.00453491
0.00440883
0.00426449
0.0041042
0.00393322
0.00376472
0.00362608
0.00354894
0.00349568
0.00325594
0.00273883
0.00222512
0.00188143
0.00162433
0.00111473
0.00390526
0.00462403
0.00378078
0.00209159
0.00294305
0.00322486
0.00313206
0.00310144
0.0030808
0.00303533
0.00298814
0.00305193
0.00342709
0.00420575
0.00466017
0.00473351
0.0048723
0.00507204
0.00523815
0.0053445
0.00541227
0.00545077
0.00545367
0.00541242
0.00533915
0.0052426
0.00512579
0.00499081
0.00483911
0.00467227
0.0044946
0.00431799
0.00416943
0.00407832
0.00401181
0.00390518
0.00356905
0.00289358
0.00247177
0.00131801
0.00428145
0.00502072
0.0070563
0.00393726
0.00328758
0.00376017
0.00361879
0.00344672
0.00336719
0.00333862
0.00337852
0.00359504
0.00413274
0.00480742
0.00489418
0.00500858
0.00529142
0.00557545
0.00579555
0.00594732
0.00605064
0.00611682
0.00614313
0.00612843
0.00608253
0.00601157
0.00591981
0.00581103
0.00568869
0.0055562
0.00541734
0.00527698
0.00514254
0.00502348
0.00491809
0.00481666
0.00472181
0.00455681
0.00397223
0.00150969
0.0106043
0.00631739
0.00493458
0.00514896
0.00500148
0.00459702
0.00435934
0.00428911
0.0043705
0.00467887
0.00527163
0.00566263
0.00584388
0.0061952
0.00656376
0.0068504
0.00703837
0.00715072
0.00721235
0.0072392
0.007234
0.00720223
0.00714895
0.00707788
0.00699261
0.00689737
0.00679744
0.00669919
0.00660973
0.00653521
0.0064775
0.00643041
0.00637647
0.00627991
0.00612724
0.00583589
0.00496441
0.00178371
0.00374253
0.00507688
0.00660954
0.00639242
0.00599155
0.00531947
0.00487158
0.00467784
0.00468799
0.004926
0.00546485
0.00604998
0.00668051
0.00727333
0.00771775
0.00799622
0.00814497
0.00821302
0.00824082
0.00825169
0.00825376
0.00824886
0.0082358
0.00821219
0.00817586
0.00812586
0.00806334
0.00799245
0.00792031
0.00785497
0.00780043
0.00775063
0.00768725
0.00758332
0.00740306
0.00706065
0.00633607
0.00221311
0.00155327
0.00154767
0.00232211
0.00178316
0.00172785
0.00161015
0.00154638
0.00153248
0.00151401
0.00150517
0.00150796
0.00153451
0.0015903
0.00165569
0.00172079
0.00178108
0.00183147
0.00186892
0.00189382
0.00190894
0.00191713
0.00192118
0.00192324
0.00192464
0.001926
0.00192733
0.00192825
0.00192809
0.00192616
0.00192198
0.00191567
0.001908
0.0019
0.00189191
0.0018824
0.00186877
0.00184708
0.00181494
0.00178096
0.00158303
)
;

boundaryField
{
    floor
    {
        type            compressible::alphatWallFunction;
        Prt             0.85;
        value           nonuniform List<scalar> 
36
(
8.93669e-05
5.43756e-05
4.28943e-05
3.01591e-05
2.38161e-05
2.031e-05
1.92744e-05
2.02484e-05
2.28021e-05
2.68322e-05
3.22131e-05
3.87336e-05
4.61933e-05
5.44927e-05
6.37804e-05
7.38707e-05
8.37677e-05
9.03271e-05
7.86511e-05
7.86502e-05
9.92395e-05
0.000105517
0.000117075
0.000124991
0.000124734
0.00011168
8.93658e-05
0.000102646
0.000105589
8.7275e-05
5.43749e-05
8.72739e-05
7.15384e-05
0.000107027
8.37531e-05
9.74985e-05
)
;
    }
    ceiling
    {
        type            compressible::alphatWallFunction;
        Prt             0.85;
        value           nonuniform List<scalar> 
43
(
0.000218669
0.000217913
0.000319178
0.000249097
0.000241783
0.000226138
0.000217612
0.000215752
0.000213272
0.000212084
0.000212461
0.000216031
0.000223502
0.000232215
0.00024085
0.000248814
0.000255445
0.000260361
0.000263624
0.000265601
0.000266673
0.000267204
0.000267474
0.000267657
0.000267834
0.000268008
0.000268126
0.000268103
0.000267847
0.000267297
0.000266467
0.000265462
0.000264413
0.000263354
0.000262108
0.00026032
0.000257471
0.000253243
0.000248763
0.000222475
0.000561712
0.000649937
0.000496443
)
;
    }
    sWall
    {
        type            compressible::alphatWallFunction;
        Prt             0.85;
        value           uniform 0.000217806;
    }
    nWall
    {
        type            compressible::alphatWallFunction;
        Prt             0.85;
        value           nonuniform List<scalar> 6(0.000111564 0.000119157 0.000158442 0.000248873 0.000304839 0.000222226);
    }
    sideWalls
    {
        type            empty;
    }
    glass1
    {
        type            compressible::alphatWallFunction;
        Prt             0.85;
        value           nonuniform List<scalar> 9(0.000244135 0.000340145 0.000403049 0.000427779 0.000445671 0.000462662 0.000483065 0.000510855 0.000556058);
    }
    glass2
    {
        type            compressible::alphatWallFunction;
        Prt             0.85;
        value           nonuniform List<scalar> 2(0.000186372 0.000212313);
    }
    sun
    {
        type            compressible::alphatWallFunction;
        Prt             0.85;
        value           nonuniform List<scalar> 
14
(
0.000247478
0.000324808
0.000315688
0.000301549
0.000287807
0.00027493
0.000263103
0.000251716
0.000240099
0.000227616
0.000213466
0.000196256
0.000172505
0.000121653
)
;
    }
    Table_master
    {
        type            compressible::alphatWallFunction;
        Prt             0.85;
        value           nonuniform List<scalar> 9(2.1819e-05 2.05704e-05 2.23692e-05 2.61172e-05 3.19975e-05 4.01651e-05 5.0675e-05 6.37371e-05 7.99318e-05);
    }
    Table_slave
    {
        type            compressible::alphatWallFunction;
        Prt             0.85;
        value           nonuniform List<scalar> 9(7.79812e-05 7.75297e-05 7.56734e-05 7.23223e-05 6.76231e-05 6.2251e-05 5.83773e-05 6.04114e-05 7.22431e-05);
    }
    inlet
    {
        type            fixedValue;
        value           uniform 1.94e-05;
    }
    outlet
    {
        type            zeroGradient;
    }
}


// ************************************************************************* //
