/*--------------------------------*- C++ -*----------------------------------*\
  =========                 |
  \\      /  F ield         | OpenFOAM: The Open Source CFD Toolbox
   \\    /   O peration     | Website:  https://openfoam.org
    \\  /    A nd           | Version:  6
     \\/     M anipulation  |
\*---------------------------------------------------------------------------*/
FoamFile
{
    version     2.0;
    format      ascii;
    class       volScalarField;
    location    "100";
    object      epsilon;
}
// * * * * * * * * * * * * * * * * * * * * * * * * * * * * * * * * * * * * * //

dimensions      [0 2 -3 0 0 0 0];

internalField   nonuniform List<scalar> 
458
(
0.00132042
0.00314163
0.00286527
0.0024728
0.00212938
0.00183946
0.00159872
0.00138874
0.00119534
0.00100952
0.000824596
0.000633487
0.000423984
0.000145961
5.91863e-05
1.53282e-05
8.4986e-06
3.82034e-06
2.36484e-06
1.75769e-06
1.60178e-06
1.74724e-06
2.17397e-06
2.99189e-06
4.39859e-06
6.6687e-06
1.01685e-05
1.54114e-05
2.32838e-05
3.46816e-05
4.92366e-05
6.09802e-05
4.12671e-05
0.00379322
0.00406154
0.00339207
0.00262981
0.00203516
0.00162067
0.00133337
0.00113128
0.000983964
0.000867309
0.000759011
0.000632852
0.000470505
0.000237577
0.000110919
8.82214e-05
9.57953e-05
5.53036e-05
3.17744e-05
2.04423e-05
6.28614e-06
2.80408e-06
1.72338e-06
1.35419e-06
1.41494e-06
1.76763e-06
2.50288e-06
3.85223e-06
6.1868e-06
1.00581e-05
1.63061e-05
2.62791e-05
4.09099e-05
7.35414e-05
0.000164382
7.99781e-05
0.00654267
0.00640626
0.00441586
0.00294177
0.00209027
0.00160359
0.00127352
0.00104756
0.000892898
0.000782624
0.000690327
0.000583483
0.000442194
0.000236043
0.000124561
0.000101141
0.000131412
9.96746e-05
4.92478e-05
2.88048e-05
9.1202e-06
5.41304e-06
3.60876e-06
2.01613e-06
1.80967e-06
2.11071e-06
2.85071e-06
4.35973e-06
7.2988e-06
1.28681e-05
2.33398e-05
4.33288e-05
3.66067e-05
6.38535e-05
0.000145414
9.56334e-05
0.00792671
0.00865106
0.00463792
0.00240368
0.00146943
0.00107645
0.000891321
0.000788025
0.000715763
0.000655064
0.000592499
0.000504596
0.000387719
0.000229865
0.000137651
8.40337e-05
8.77828e-05
0.000128123
7.60102e-05
4.6878e-05
2.57557e-05
1.80172e-05
2.0304e-05
2.68905e-05
4.04661e-05
3.98144e-05
3.72261e-05
3.28611e-05
2.73695e-05
2.19272e-05
1.8513e-05
2.0253e-05
3.27563e-05
2.96468e-05
4.77185e-05
8.66858e-05
0.0001299
0.00904672
0.010562
0.0040421
0.00141441
0.000677092
0.000490347
0.000515988
0.000543901
0.000545592
0.000526427
0.000486262
0.000412418
0.000328295
0.000220633
0.000118264
6.18577e-05
5.1151e-05
5.11269e-05
4.72669e-05
3.8046e-05
3.06277e-05
2.9905e-05
3.27461e-05
3.62429e-05
3.91001e-05
3.95848e-05
3.84107e-05
3.55739e-05
3.12076e-05
2.59301e-05
2.10656e-05
1.85744e-05
2.0871e-05
2.9868e-05
4.98476e-05
8.5366e-05
0.000146155
0.00015785
0.000156899
0.000113022
0.0102078
0.0120918
0.00335374
0.000568731
0.000286646
0.000279337
0.000349037
0.000398552
0.000419717
0.000415675
0.000387624
0.000335671
0.000281971
0.000199371
9.73094e-05
5.45527e-05
4.86731e-05
4.99974e-05
5.00254e-05
4.83209e-05
4.78661e-05
5.05253e-05
5.48707e-05
6.00881e-05
6.46359e-05
6.73904e-05
6.80259e-05
6.60656e-05
6.11184e-05
5.33022e-05
4.37114e-05
3.45968e-05
2.90797e-05
3.00873e-05
4.01235e-05
6.13087e-05
9.75571e-05
0.000150157
0.000196923
0.000137229
0.0117343
0.0131049
0.00442516
0.000527802
0.000253865
0.000231272
0.000269888
0.000307812
0.00032904
0.00033028
0.000312321
0.000279987
0.000245537
0.000172674
8.68056e-05
6.15086e-05
6.41815e-05
7.16229e-05
7.72765e-05
8.04725e-05
8.41331e-05
8.94258e-05
9.62033e-05
0.0001047
0.0001126
0.00011912
0.000123336
0.000124122
0.000120245
0.000110871
9.6285e-05
7.84113e-05
6.20029e-05
5.20054e-05
5.26562e-05
6.67911e-05
9.5928e-05
0.000146874
0.000230551
0.000324599
0.0140614
0.0164718
0.0102337
0.00113373
0.000348024
0.000221835
0.00023049
0.000254801
0.000271479
0.000274628
0.000264182
0.000244677
0.000219593
0.000155984
9.91124e-05
9.63936e-05
0.000114009
0.000132661
0.000146852
0.000156413
0.000164536
0.000172893
0.000182968
0.000195023
0.000207073
0.000218768
0.000228797
0.0002352
0.000235545
0.000227587
0.000210343
0.000185115
0.000156123
0.000129781
0.000115391
0.000117367
0.000136901
0.000199734
0.000356094
0.000536663
0.01851
0.0297825
0.0333039
0.0067913
0.000941456
0.000352561
0.000244926
0.00024461
0.000253339
0.000256568
0.000251275
0.00024056
0.000226634
0.000190292
0.000184148
0.000228753
0.000280115
0.00032099
0.000348848
0.000366431
0.00037847
0.000388763
0.000401408
0.000414027
0.000428443
0.0004446
0.000461048
0.000475119
0.000483148
0.000481222
0.000466535
0.000438781
0.000400719
0.000357543
0.000316497
0.000294495
0.00028844
0.000307934
0.000449104
0.000806535
0.0715684
0.0175092
0.00245038
0.000923421
0.000516311
0.000398414
0.000364285
0.000354559
0.000351068
0.000358394
0.000396216
0.00045332
0.000572077
0.000729917
0.000866653
0.000958623
0.00101101
0.00103432
0.00104236
0.00104502
0.00104611
0.00105005
0.00105915
0.00107364
0.00109203
0.0011112
0.00112657
0.00113285
0.00112583
0.00110424
0.00107029
0.00102769
0.000979373
0.000924789
0.000883232
0.000847957
0.000876114
0.00133032
0.0123352
0.00421784
0.00393887
0.00210142
0.00128568
0.00077904
0.000571573
0.000494717
0.000473329
0.000500334
0.000676985
0.00105037
0.00155411
0.00204646
0.00241482
0.0026324
0.00273014
0.002759
0.00275952
0.00275579
0.00275906
0.00277369
0.00280036
0.00283707
0.00287958
0.00292157
0.00295496
0.00297142
0.00296526
0.00293635
0.00288992
0.00283231
0.00276628
0.00269007
0.00259755
0.00252559
0.00280062
0.00254101
0.000902874
0.000891781
0.00295795
0.00133734
0.00121652
0.000984486
0.000872144
0.000848911
0.000818536
0.000804175
0.000808482
0.000851518
0.000947371
0.00106863
0.00119926
0.00132934
0.00144496
0.00153505
0.00159694
0.00163523
0.00165621
0.0016666
0.00167185
0.00167537
0.00167875
0.00168202
0.00168413
0.00168334
0.00167779
0.00166632
0.00164935
0.00162906
0.00160821
0.00158746
0.00156349
0.0015297
0.001477
0.00140122
0.00132391
0.0009296
)
;

boundaryField
{
    floor
    {
        Cmu             0.09;
        kappa           0.41;
        E               9.8;
        type            epsilonWallFunction;
        value           nonuniform List<scalar> 
36
(
5.91863e-05
1.53282e-05
8.4986e-06
3.82034e-06
2.36484e-06
1.75769e-06
1.60178e-06
1.74724e-06
2.17397e-06
2.99189e-06
4.39859e-06
6.6687e-06
1.01685e-05
1.54114e-05
2.32838e-05
3.46816e-05
4.92366e-05
6.09802e-05
4.12671e-05
4.12671e-05
7.99781e-05
9.56334e-05
0.0001299
0.00015785
0.000156899
0.000113022
5.91863e-05
8.82214e-05
9.57953e-05
5.53036e-05
1.53282e-05
5.53036e-05
3.17744e-05
9.96746e-05
4.92478e-05
7.60102e-05
)
;
    }
    ceiling
    {
        Cmu             0.09;
        kappa           0.41;
        E               9.8;
        type            epsilonWallFunction;
        value           nonuniform List<scalar> 
43
(
0.000902874
0.000891781
0.00295795
0.00133734
0.00121652
0.000984486
0.000872144
0.000848911
0.000818536
0.000804175
0.000808482
0.000851518
0.000947371
0.00106863
0.00119926
0.00132934
0.00144496
0.00153505
0.00159694
0.00163523
0.00165621
0.0016666
0.00167185
0.00167537
0.00167875
0.00168202
0.00168413
0.00168334
0.00167779
0.00166632
0.00164935
0.00162906
0.00160821
0.00158746
0.00156349
0.0015297
0.001477
0.00140122
0.00132391
0.0009296
0.01851
0.0297825
0.0123352
)
;
    }
    sWall
    {
        Cmu             0.09;
        kappa           0.41;
        E               9.8;
        type            epsilonWallFunction;
        value           uniform 0.000902874;
    }
    nWall
    {
        Cmu             0.09;
        kappa           0.41;
        E               9.8;
        type            epsilonWallFunction;
        value           nonuniform List<scalar> 6(0.000113022 0.000137229 0.000324599 0.00133032 0.00254101 0.0009296);
    }
    sideWalls
    {
        type            empty;
    }
    glass1
    {
        Cmu             0.09;
        kappa           0.41;
        E               9.8;
        type            epsilonWallFunction;
        value           nonuniform List<scalar> 9(0.00132042 0.00379322 0.00654267 0.00792671 0.00904672 0.0102078 0.0117343 0.0140614 0.01851);
    }
    glass2
    {
        Cmu             0.09;
        kappa           0.41;
        E               9.8;
        type            epsilonWallFunction;
        value           nonuniform List<scalar> 2(0.000536663 0.000806535);
    }
    sun
    {
        Cmu             0.09;
        kappa           0.41;
        E               9.8;
        type            epsilonWallFunction;
        value           nonuniform List<scalar> 
14
(
0.00132042
0.00314163
0.00286527
0.0024728
0.00212938
0.00183946
0.00159872
0.00138874
0.00119534
0.00100952
0.000824596
0.000633487
0.000423984
0.000145961
)
;
    }
    Table_master
    {
        Cmu             0.09;
        kappa           0.41;
        E               9.8;
        type            epsilonWallFunction;
        value           nonuniform List<scalar> 9(2.01613e-06 1.80967e-06 2.11071e-06 2.85071e-06 4.35973e-06 7.2988e-06 1.28681e-05 2.33398e-05 4.33288e-05);
    }
    Table_slave
    {
        Cmu             0.09;
        kappa           0.41;
        E               9.8;
        type            epsilonWallFunction;
        value           nonuniform List<scalar> 9(4.04661e-05 3.98144e-05 3.72261e-05 3.28611e-05 2.73695e-05 2.19272e-05 1.8513e-05 2.0253e-05 3.27563e-05);
    }
    inlet
    {
        type            turbulentMixingLengthDissipationRateInlet;
        mixingLength    0.01;
        phi             phi;
        k               k;
        value           uniform 3.77337e-06;
    }
    outlet
    {
        type            zeroGradient;
    }
}


// ************************************************************************* //
