/*--------------------------------*- C++ -*----------------------------------*\
  =========                 |
  \\      /  F ield         | OpenFOAM: The Open Source CFD Toolbox
   \\    /   O peration     | Website:  https://openfoam.org
    \\  /    A nd           | Version:  6
     \\/     M anipulation  |
\*---------------------------------------------------------------------------*/
FoamFile
{
    version     2.0;
    format      ascii;
    class       volScalarField;
    location    "100";
    object      k;
}
// * * * * * * * * * * * * * * * * * * * * * * * * * * * * * * * * * * * * * //

dimensions      [0 2 -2 0 0 0 0];

internalField   nonuniform List<scalar> 
458
(
0.00477026
0.00850177
0.00799555
0.00724767
0.00656009
0.00595027
0.0054191
0.00493359
0.00446424
0.00398874
0.00348548
0.00292378
0.00223733
0.00109967
0.000602031
0.000244532
0.000164999
9.68182e-05
7.03252e-05
5.77136e-05
5.42583e-05
5.75042e-05
6.65302e-05
8.2321e-05
0.000106437
0.000140464
0.000186073
0.000245498
0.000323219
0.000421536
0.000532446
0.000614043
0.000473285
0.00964006
0.0115857
0.0109595
0.00958362
0.00828311
0.00726683
0.00645986
0.00580499
0.00526289
0.00478604
0.00430891
0.00372623
0.00294488
0.00182181
0.00125428
0.00078553
0.000829862
0.000575362
0.000397519
0.000433051
0.000209003
0.000122562
8.65602e-05
7.3029e-05
7.42844e-05
8.46508e-05
0.000105508
0.000140839
0.000195659
0.000275416
0.000386932
0.000539584
0.000753863
0.00109028
0.00183145
0.000735674
0.0138645
0.0163167
0.0133966
0.0104936
0.00858764
0.00741774
0.00653046
0.00585142
0.00532497
0.00488675
0.00445021
0.00388013
0.00308903
0.00200943
0.00165487
0.00150075
0.00155862
0.000852043
0.000532366
0.000607818
0.000295334
0.000184624
0.000113276
6.32416e-05
5.8861e-05
6.52287e-05
7.97079e-05
0.00010581
0.000149181
0.000217698
0.000323742
0.000488958
0.000724102
0.00100556
0.00165253
0.000828781
0.0157566
0.0209
0.0141017
0.0091347
0.00679137
0.00578746
0.00531154
0.00503709
0.00481006
0.00456131
0.00423046
0.00370232
0.00298224
0.00221172
0.00195729
0.00131227
0.00107794
0.00120638
0.000711035
0.000765615
0.000659421
0.000507018
0.000468182
0.000457024
0.000467065
0.000462064
0.000441833
0.000406598
0.000359947
0.000310504
0.000277385
0.000294512
0.000405779
0.000666714
0.00083114
0.00105684
0.00101654
0.0172079
0.0241244
0.0125214
0.00621389
0.00416867
0.00366669
0.00389874
0.00411204
0.00417181
0.00408275
0.00382386
0.00332926
0.00280896
0.00240199
0.001943
0.00133737
0.00112281
0.0010409
0.00098974
0.000960641
0.000921935
0.000909796
0.000949957
0.00100357
0.00104174
0.00104375
0.00101853
0.000966342
0.000888884
0.000794073
0.000700144
0.000637049
0.00064682
0.000755673
0.000911087
0.00112504
0.00140295
0.00115761
0.00115291
0.000926471
0.0186504
0.0254946
0.0102249
0.00371546
0.00292039
0.00286128
0.00320793
0.00348793
0.00361135
0.00356799
0.00335207
0.00299005
0.00270876
0.00247771
0.00187563
0.00141595
0.00132739
0.00133844
0.00134652
0.00134295
0.0013545
0.00139278
0.00145176
0.00151784
0.00156375
0.00157963
0.00156459
0.00151523
0.00142871
0.00130731
0.0011639
0.00102546
0.000932638
0.000923616
0.000999603
0.00114292
0.00136332
0.00166229
0.00181191
0.00105474
0.0204663
0.0250011
0.0111017
0.00339185
0.00277209
0.00263297
0.00282747
0.00303633
0.00314532
0.00312136
0.00297207
0.00276671
0.00266796
0.00247278
0.00188775
0.001627
0.00167714
0.0017914
0.00187868
0.00192725
0.00197617
0.00203774
0.00210949
0.00218936
0.00225006
0.00228763
0.00229513
0.00226439
0.00218641
0.00205523
0.00187378
0.00165951
0.00145991
0.00132697
0.00128865
0.00133111
0.00143787
0.001636
0.00190453
0.00187209
0.0230898
0.0271824
0.0193766
0.00479819
0.0031536
0.00263563
0.00264766
0.0027702
0.00284993
0.00284516
0.00276857
0.00269225
0.0027019
0.00252172
0.00211561
0.00210267
0.00232002
0.0025534
0.00273015
0.00284608
0.0029375
0.00302187
0.00310948
0.00319809
0.00327298
0.00333351
0.00337079
0.00337223
0.00332293
0.00320943
0.00302615
0.00278252
0.00251099
0.00226422
0.00211752
0.002107
0.00217546
0.00236599
0.00291981
0.00261745
0.0277335
0.038081
0.0477389
0.0161105
0.00548171
0.00358771
0.00293364
0.00286122
0.00287802
0.00288389
0.00287073
0.00289696
0.00301399
0.0029779
0.00295543
0.00333219
0.00379004
0.00416463
0.00442647
0.00459568
0.00471095
0.00480062
0.00488852
0.00495876
0.00502535
0.00508915
0.00514259
0.00517211
0.00516025
0.00508945
0.004948
0.00473588
0.00446772
0.004171
0.00388289
0.00370667
0.00363206
0.00368663
0.0041568
0.00343417
0.085744
0.0327635
0.0108339
0.00679394
0.00500701
0.00421678
0.00392646
0.00384219
0.00385898
0.00403362
0.00450078
0.00498862
0.00569271
0.00662058
0.00742553
0.00797828
0.00830502
0.00846697
0.00853631
0.00856305
0.00856438
0.0085615
0.00856654
0.00858177
0.00860239
0.00861796
0.00861388
0.00857484
0.00849059
0.00836096
0.00819475
0.00800066
0.00777742
0.00750011
0.00724001
0.00692324
0.00649055
0.00479409
0.0211582
0.0144158
0.0158961
0.0114188
0.00864711
0.00634237
0.00519878
0.0047393
0.00464041
0.00488996
0.00599011
0.00784982
0.0100331
0.0120128
0.0134417
0.014285
0.0146823
0.014821
0.0148474
0.014847
0.0148575
0.0148922
0.0149515
0.0150273
0.0151055
0.015168
0.015195
0.0151694
0.0150843
0.0149479
0.0147771
0.0145819
0.0143517
0.0140566
0.0136475
0.0131422
0.0131099
0.00738022
0.00370231
0.00367188
0.00816648
0.00481083
0.00451656
0.00392225
0.00361786
0.00355327
0.003468
0.0034273
0.00343948
0.00356038
0.00382276
0.0041424
0.00447352
0.00479152
0.00506554
0.00527405
0.00541491
0.00550117
0.00554812
0.00557129
0.00558296
0.00559079
0.00559829
0.00560558
0.00561028
0.00560852
0.00559621
0.00557072
0.00553283
0.00548737
0.00544041
0.00539347
0.00533901
0.0052618
0.00514025
0.00496289
0.00477863
0.00377511
)
;

boundaryField
{
    floor
    {
        type            kqRWallFunction;
        value           nonuniform List<scalar> 
36
(
0.000602031
0.000244532
0.000164999
9.68182e-05
7.03252e-05
5.77136e-05
5.42583e-05
5.75042e-05
6.65302e-05
8.2321e-05
0.000106437
0.000140464
0.000186073
0.000245498
0.000323219
0.000421536
0.000532446
0.000614043
0.000473285
0.000473285
0.000735674
0.000828781
0.00101654
0.00115761
0.00115291
0.000926471
0.000602031
0.00078553
0.000829862
0.000575362
0.000244532
0.000575362
0.000397519
0.000852043
0.000532366
0.000711035
)
;
    }
    ceiling
    {
        type            kqRWallFunction;
        value           nonuniform List<scalar> 
43
(
0.00370231
0.00367188
0.00816648
0.00481083
0.00451656
0.00392225
0.00361786
0.00355327
0.003468
0.0034273
0.00343948
0.00356038
0.00382276
0.0041424
0.00447352
0.00479152
0.00506554
0.00527405
0.00541491
0.00550117
0.00554812
0.00557129
0.00558296
0.00559079
0.00559829
0.00560558
0.00561028
0.00560852
0.00559621
0.00557072
0.00553283
0.00548737
0.00544041
0.00539347
0.00533901
0.0052618
0.00514025
0.00496289
0.00477863
0.00377511
0.0277335
0.038081
0.0211582
)
;
    }
    sWall
    {
        type            kqRWallFunction;
        value           uniform 0.00370231;
    }
    nWall
    {
        type            kqRWallFunction;
        value           nonuniform List<scalar> 6(0.000926471 0.00105474 0.00187209 0.00479409 0.00738022 0.00377511);
    }
    sideWalls
    {
        type            empty;
    }
    glass1
    {
        type            kqRWallFunction;
        value           nonuniform List<scalar> 9(0.00477026 0.00964006 0.0138645 0.0157566 0.0172079 0.0186504 0.0204663 0.0230898 0.0277335);
    }
    glass2
    {
        type            kqRWallFunction;
        value           nonuniform List<scalar> 2(0.00261745 0.00343417);
    }
    sun
    {
        type            kqRWallFunction;
        value           nonuniform List<scalar> 
14
(
0.00477026
0.00850177
0.00799555
0.00724767
0.00656009
0.00595027
0.0054191
0.00493359
0.00446424
0.00398874
0.00348548
0.00292378
0.00223733
0.00109967
)
;
    }
    Table_master
    {
        type            kqRWallFunction;
        value           nonuniform List<scalar> 9(6.32416e-05 5.8861e-05 6.52287e-05 7.97079e-05 0.00010581 0.000149181 0.000217698 0.000323742 0.000488958);
    }
    Table_slave
    {
        type            kqRWallFunction;
        value           nonuniform List<scalar> 9(0.000467065 0.000462064 0.000441833 0.000406598 0.000359947 0.000310504 0.000277385 0.000294512 0.000405779);
    }
    inlet
    {
        type            turbulentIntensityKineticEnergyInlet;
        intensity       0.05;
        value           uniform 3.75e-05;
    }
    outlet
    {
        type            zeroGradient;
    }
}


// ************************************************************************* //
