/*--------------------------------*- C++ -*----------------------------------*\
  =========                 |
  \\      /  F ield         | OpenFOAM: The Open Source CFD Toolbox
   \\    /   O peration     | Website:  https://openfoam.org
    \\  /    A nd           | Version:  6
     \\/     M anipulation  |
\*---------------------------------------------------------------------------*/
FoamFile
{
    version     2.0;
    format      ascii;
    class       volScalarField;
    location    "100";
    object      nut;
}
// * * * * * * * * * * * * * * * * * * * * * * * * * * * * * * * * * * * * * //

dimensions      [0 2 -1 0 0 0 0];

internalField   nonuniform List<scalar> 
458
(
0.00155101
0.00207064
0.00200805
0.00191184
0.0018189
0.00173231
0.0016532
0.00157742
0.00150053
0.0014184
0.00132595
0.00121449
0.00106256
0.000745643
0.000551136
0.000351094
0.000288308
0.000220828
0.000188219
0.000170552
0.000165414
0.000170329
0.000183243
0.000203854
0.000231802
0.000266275
0.000306446
0.000351962
0.000403814
0.00046112
0.000518209
0.000556482
0.000488523
0.00220492
0.00297438
0.00318685
0.00314324
0.00303411
0.0029325
0.00281668
0.00268087
0.00253345
0.00237696
0.00220156
0.0019746
0.00165888
0.00125731
0.00127651
0.000629498
0.000647008
0.00053873
0.000447589
0.000825637
0.000625405
0.000482127
0.000391288
0.000354448
0.000350995
0.000364849
0.000400286
0.00046342
0.000556896
0.000678742
0.000826347
0.000997126
0.00125025
0.00145475
0.00183644
0.000609036
0.00264422
0.00374028
0.00365779
0.00336888
0.00317532
0.0030881
0.00301387
0.00294162
0.00285808
0.00274618
0.00258195
0.00232224
0.00194211
0.00153957
0.00197873
0.00200417
0.00166374
0.000655512
0.000517937
0.00115432
0.000860728
0.000566734
0.000320009
0.000178538
0.000172305
0.000181423
0.000200582
0.000231119
0.00027442
0.000331464
0.000404151
0.000496603
0.00128908
0.0014252
0.00169018
0.000646417
0.00281887
0.00454428
0.0038589
0.00312431
0.00282493
0.00280044
0.00284872
0.00289775
0.0029092
0.0028585
0.0027185
0.00244482
0.00206447
0.00191526
0.00250481
0.00184431
0.0011913
0.00102231
0.000598622
0.00112537
0.00151948
0.00128411
0.000971607
0.000699071
0.000485185
0.000482621
0.000471967
0.000452784
0.000426043
0.000395725
0.000374052
0.000385441
0.000452406
0.00134941
0.00130288
0.00115961
0.000715949
0.00294583
0.00495918
0.00349091
0.00245694
0.00230988
0.00246767
0.00265125
0.00279793
0.00287093
0.00284977
0.0027063
0.0024188
0.00216306
0.0023535
0.002873
0.00260228
0.00221822
0.00190727
0.00186521
0.00218301
0.00249763
0.00249108
0.00248022
0.00250103
0.00249797
0.0024769
0.00243074
0.0023625
0.00227862
0.00218856
0.00209432
0.00196641
0.00180413
0.0017207
0.00149871
0.00133443
0.00121203
0.00076405
0.000762455
0.000683505
0.00306682
0.00483779
0.00280565
0.00218454
0.0026778
0.00263776
0.00265351
0.00274722
0.00279658
0.00275636
0.0026089
0.0023971
0.00234195
0.00277127
0.00325372
0.00330766
0.00325799
0.00322471
0.00326193
0.00335914
0.00344963
0.00345542
0.00345695
0.00345071
0.00340489
0.00333238
0.0032387
0.00312768
0.00300579
0.00288573
0.00278918
0.00273556
0.00269203
0.00255178
0.00224129
0.00191756
0.00171468
0.00165619
0.00150043
0.000729601
0.00321266
0.00429267
0.00250663
0.00196175
0.00272429
0.00269782
0.00266597
0.0026956
0.00270597
0.0026549
0.00254542
0.00246056
0.00260907
0.00318702
0.00369474
0.00387333
0.00394432
0.00403253
0.00411055
0.00415404
0.00417755
0.00417905
0.00416299
0.00412031
0.00404662
0.00395392
0.00384385
0.00371786
0.00357799
0.00342883
0.00328187
0.00316097
0.00309372
0.0030473
0.00283832
0.00238753
0.0019397
0.00164009
0.00141596
0.000971732
0.00341236
0.00403719
0.0033019
0.00182763
0.00257185
0.00281825
0.00273724
0.00271058
0.00269261
0.00265283
0.00261126
0.00266612
0.002992
0.00366909
0.00406428
0.00412797
0.00424899
0.0044232
0.00456809
0.00466085
0.00471996
0.00475353
0.00475602
0.00471996
0.00465592
0.00457154
0.00446946
0.00435152
0.00421901
0.00407334
0.00391828
0.00376422
0.00363467
0.00355523
0.00349725
0.00340429
0.00311126
0.00252242
0.0021547
0.00114894
0.00373978
0.00438225
0.00615876
0.00343958
0.0028726
0.00328582
0.00316243
0.00301211
0.00294257
0.00291741
0.00295174
0.0031398
0.00360745
0.00419412
0.00426892
0.00436852
0.00461522
0.00486299
0.005055
0.00518739
0.00527751
0.00533521
0.0053581
0.00534516
0.00530495
0.00524282
0.0051625
0.00506729
0.00496025
0.00484437
0.00472299
0.00460039
0.00448305
0.00437918
0.00428728
0.00419886
0.00411617
0.00397232
0.00346269
0.00131602
0.00924545
0.00551769
0.004311
0.00449869
0.00437007
0.00401672
0.00380893
0.00374724
0.00381765
0.00408575
0.00460136
0.00494081
0.0050983
0.00540457
0.00572602
0.00597604
0.00613999
0.00623796
0.00629168
0.00631503
0.00631039
0.00628253
0.00623584
0.00617356
0.00609882
0.00601532
0.00592767
0.00584147
0.00576296
0.00569757
0.00564695
0.00560571
0.0055586
0.00547439
0.00534129
0.0050873
0.00432758
0.00155489
0.00326629
0.00443432
0.00577367
0.0055843
0.00523424
0.00464714
0.00425572
0.00408615
0.00409441
0.00430122
0.00477015
0.00527983
0.00582948
0.00634641
0.00673393
0.00697669
0.00710631
0.00716553
0.00718965
0.00719899
0.00720065
0.00719618
0.00718454
0.00716362
0.00713151
0.00708737
0.00703222
0.0069697
0.00690609
0.00684848
0.00680042
0.00675667
0.00670122
0.00661054
0.00645336
0.00615485
0.00552318
0.00192919
0.00136635
0.0013607
0.00202919
0.00155754
0.00150918
0.00140638
0.0013507
0.00133856
0.0013224
0.00131461
0.00131692
0.00133981
0.00138828
0.00144517
0.00150186
0.00155436
0.00159823
0.00163083
0.00165248
0.00166561
0.0016727
0.00167618
0.00167793
0.00167911
0.00168023
0.00168132
0.00168203
0.00168178
0.00167994
0.00167612
0.00167042
0.00166354
0.00165639
0.00164922
0.00164086
0.00162894
0.00161002
0.001582
0.00155235
0.00137976
)
;

boundaryField
{
    floor
    {
        type            nutkWallFunction;
        Cmu             0.09;
        kappa           0.41;
        E               9.8;
        value           nonuniform List<scalar> 
36
(
6.61531e-05
4.02199e-05
3.1725e-05
2.23013e-05
1.76084e-05
1.50147e-05
1.42487e-05
1.49691e-05
1.6858e-05
1.98395e-05
2.38209e-05
2.86464e-05
3.41677e-05
4.03117e-05
4.71883e-05
5.46598e-05
6.19885e-05
6.68453e-05
5.81993e-05
5.81992e-05
7.34542e-05
7.81083e-05
8.66736e-05
9.25397e-05
9.2351e-05
8.26864e-05
6.6153e-05
7.59847e-05
7.81606e-05
6.45909e-05
4.02198e-05
6.45909e-05
5.29339e-05
7.92248e-05
6.19832e-05
7.21677e-05
)
;
    }
    ceiling
    {
        type            nutkWallFunction;
        Cmu             0.09;
        kappa           0.41;
        E               9.8;
        value           nonuniform List<scalar> 
43
(
0.000163194
0.00016255
0.000236856
0.000184734
0.000179299
0.000167688
0.00016136
0.00015998
0.000158136
0.000157247
0.000157513
0.00016013
0.000165647
0.00017209
0.000178481
0.000184375
0.000189283
0.000192919
0.00019533
0.00019679
0.000197578
0.000197966
0.000198161
0.000198291
0.000198416
0.000198537
0.000198615
0.000198585
0.000198379
0.000197952
0.000197315
0.000196549
0.000195754
0.000194955
0.000194025
0.000192696
0.000190584
0.000187451
0.000184129
0.000164649
0.000416821
0.000481976
0.000368063
)
;
    }
    sWall
    {
        type            nutkWallFunction;
        Cmu             0.09;
        kappa           0.41;
        E               9.8;
        value           uniform 0.000163226;
    }
    nWall
    {
        type            nutkWallFunction;
        Cmu             0.09;
        kappa           0.41;
        E               9.8;
        value           nonuniform List<scalar> 6(8.26848e-05 8.83039e-05 0.000117413 0.000184422 0.000225891 0.000164658);
    }
    sideWalls
    {
        type            empty;
    }
    glass1
    {
        type            nutkWallFunction;
        Cmu             0.09;
        kappa           0.41;
        E               9.8;
        value           nonuniform List<scalar> 9(0.000184165 0.000256155 0.000303192 0.000321654 0.000334999 0.000347659 0.000362851 0.00038354 0.000417199);
    }
    glass2
    {
        type            nutkWallFunction;
        Cmu             0.09;
        kappa           0.41;
        E               9.8;
        value           nonuniform List<scalar> 2(0.000138166 0.000157396);
    }
    sun
    {
        type            nutkWallFunction;
        Cmu             0.09;
        kappa           0.41;
        E               9.8;
        value           nonuniform List<scalar> 
14
(
0.000184023
0.000241368
0.000234547
0.00022402
0.000213798
0.000204223
0.000195429
0.000186963
0.000178326
0.000169046
0.000158527
0.000145734
0.000128072
9.01809e-05
)
;
    }
    Table_master
    {
        type            nutkWallFunction;
        Cmu             0.09;
        kappa           0.41;
        E               9.8;
        value           nonuniform List<scalar> 9(1.6166e-05 1.52409e-05 1.65736e-05 1.93504e-05 2.3707e-05 2.97582e-05 3.75449e-05 4.72229e-05 5.92223e-05);
    }
    Table_slave
    {
        type            nutkWallFunction;
        Cmu             0.09;
        kappa           0.41;
        E               9.8;
        value           nonuniform List<scalar> 9(5.77797e-05 5.74449e-05 5.60693e-05 5.35862e-05 5.01043e-05 4.61238e-05 4.32536e-05 4.47606e-05 5.35271e-05);
    }
    inlet
    {
        type            calculated;
        value           uniform 3.3541e-05;
    }
    outlet
    {
        type            calculated;
        value           nonuniform List<scalar> 2(0.00136635 0.0013607);
    }
}


// ************************************************************************* //
