/*--------------------------------*- C++ -*----------------------------------*\
  =========                 |
  \\      /  F ield         | OpenFOAM: The Open Source CFD Toolbox
   \\    /   O peration     | Website:  https://openfoam.org
    \\  /    A nd           | Version:  6
     \\/     M anipulation  |
\*---------------------------------------------------------------------------*/
FoamFile
{
    version     2.0;
    format      ascii;
    class       surfaceScalarField;
    location    "100";
    object      phi;
}
// * * * * * * * * * * * * * * * * * * * * * * * * * * * * * * * * * * * * * //

dimensions      [1 0 -1 0 0 0 0];

internalField   nonuniform List<scalar> 
850
(
-0.000908338
0.000938025
0.00292742
-0.00383572
0.00558616
-0.0026587
0.0068751
-0.0012889
0.0074082
-0.000533061
0.00749637
-8.81283e-05
0.00724758
0.000248826
0.00671014
0.000537481
0.0059346
0.000775581
0.00496249
0.000972146
0.00381359
0.00114894
0.00247239
0.00134124
0.000887147
0.00158536
-0.000301814
0.00118985
-0.000304001
1.91458e-05
-2.19809e-05
-0.000250281
0.000269416
-0.00046668
0.000216383
-0.000598055
0.000131358
-0.000672527
7.44563e-05
-0.00071405
4.15095e-05
-0.000740241
2.6179e-05
-0.00075991
1.96585e-05
-0.000775453
1.5535e-05
-0.00078764
1.21839e-05
-0.00079763
9.99133e-06
-0.000806701
9.07615e-06
-0.000807373
6.80836e-07
-0.00076546
-4.19023e-05
-0.000642465
-0.000122985
-0.000467634
-0.00017482
-0.000354237
-0.000113387
-0.000356595
0.00444268
-0.00342602
0.00582132
-0.00521431
0.00662312
-0.00346046
0.00713111
-0.00179685
0.00735502
-0.000756934
0.0072716
-4.67863e-06
0.00688811
0.000632356
0.00625275
0.00117287
0.00541247
0.00161589
0.00440918
0.00197547
0.00328399
0.00227416
0.00209099
0.00253428
0.000969176
0.00270729
6.50046e-05
0.00209459
-0.000541273
0.000302474
-0.00032965
-0.00021581
-6.52318e-07
-0.000333087
-1.19739e-05
-0.000348305
0.000318818
-0.000474017
0.000395113
-0.000590788
0.000333141
-0.000674211
0.000214769
-0.000710152
0.000110386
-0.000719818
5.11647e-05
-0.000720047
2.63974e-05
-0.000719902
1.95027e-05
-0.000719643
1.52672e-05
-0.000719641
1.21776e-05
-0.000719705
1.0055e-05
-0.000719396
8.77098e-06
-0.000718257
-4.49516e-07
-0.000698924
-6.12259e-05
-0.000605678
-0.000216222
-0.000441533
-0.000338955
-0.000110516
-0.000444395
-0.000473342
0.00466706
-0.00796966
0.00554132
-0.00608853
0.00552047
-0.00343958
0.00561606
-0.00189239
0.0056907
-0.000831539
0.00556861
0.000117448
0.0052366
0.000964388
0.00471872
0.00169078
0.00403744
0.0022972
0.00322092
0.002792
0.00231308
0.00318203
0.00138832
0.00345907
0.000595408
0.00350033
0.000230535
0.00245998
-7.12886e-05
0.000604525
-4.59101e-05
-0.00024114
0.000149183
-0.000528179
0.000127281
-0.000664094
0.000971434
-0.000747798
0.000478805
-0.00076234
0.000347673
-0.000769502
0.000221925
-0.00075812
9.89987e-05
-0.000706811
-0.000680271
-0.000660627
-0.000645218
-0.000632898
-0.000622697
-0.000613775
-0.000614069
-0.000675138
-0.000543269
-0.000348084
-0.000401999
-0.000480221
-7.75823e-05
-0.000768808
-0.00056098
0.00264097
-0.0104415
0.00307338
-0.00652089
0.00312827
-0.00349442
0.00319138
-0.00195545
0.00324461
-0.000884726
0.00321006
0.000152036
0.0030453
0.00112918
0.00274418
0.0019919
0.00230518
0.00273621
0.00174774
0.00334945
0.00110879
0.00382099
0.000470439
0.00409746
1.45814e-05
0.00395637
-9.64267e-05
0.00257152
-0.000328544
0.000836844
-0.000689232
0.000119579
-0.00119652
-2.08932e-05
-0.00118145
0.000112201
-0.00154879
0.000354565
-0.00111313
0.000535762
-0.000966327
0.000331999
-0.000905298
0.000286639
-0.000866153
0.000182778
-0.000828879
6.17253e-05
-0.000803511
-2.55155e-05
-0.000740482
-6.31761e-05
-0.000654226
-8.64047e-05
-0.000560393
-9.39814e-05
-0.000474256
-8.62877e-05
-0.000410245
-6.4162e-05
-0.000377263
-3.3134e-05
-0.00036712
-1.02923e-05
-0.000323201
-4.40666e-05
-0.000430634
-0.000240648
-0.000447738
-0.000463116
-0.00054727
-0.000669277
-0.0011214
0.000938998
-0.0111653
0.00110285
-0.00668469
0.00137157
-0.0037631
0.0011843
-0.00176812
0.00107384
-0.000774205
0.00103009
0.00019583
0.000977272
0.00118203
0.000842619
0.00212657
0.00060665
0.00297218
0.000280523
0.00367558
-9.58141e-05
0.00419735
-0.000415908
0.00441763
-0.000501592
0.00404231
-0.000421982
0.00249239
-0.000577762
0.000992764
-0.000865492
0.000407323
-0.00112293
0.000236539
-0.0012455
0.000234755
-0.00117009
0.000279147
-0.00100534
0.000371002
-0.000939685
0.000266341
-0.000868254
0.000215207
-0.000811755
0.000126281
-0.000774814
2.47895e-05
-0.000738619
-6.17032e-05
-0.000683143
-0.000118643
-0.00061295
-0.00015659
-0.000531864
-0.000175061
-0.000447067
-0.000171081
-0.000368117
-0.00014311
-0.000305579
-9.56726e-05
-0.000270265
-4.56067e-05
-0.000281954
-3.2377e-05
-0.000413773
-0.00010883
-0.000631501
-0.00024539
-0.000865089
-0.000435694
-0.00125524
-0.000731261
-0.000683023
-0.000586784
-0.000214379
-0.000483301
-0.000228012
-3.71961e-05
-0.0108669
-1.72423e-06
-0.00672011
-7.56957e-05
-0.00368907
-0.000631489
-0.00121227
-0.000841442
-0.000564194
-0.000871937
0.000226373
-0.000841201
0.00115133
-0.000835863
0.00212125
-0.000882615
0.00301895
-0.000973965
0.00376695
-0.00106186
0.00428529
-0.00105277
0.00440869
-0.000848902
0.00383874
-0.000638966
0.00228283
-0.000681347
0.00103524
-0.000798537
0.000524518
-0.000891656
0.000329646
-0.000928722
0.000271808
-0.000904841
0.000255256
-0.00079934
0.000265493
-0.000738459
0.000205457
-0.000675579
0.000152328
-0.000625328
7.60343e-05
-0.00059032
-1.02099e-05
-0.000561582
-9.04264e-05
-0.000525375
-0.000154832
-0.000477774
-0.000204171
-0.000417677
-0.000235141
-0.000346482
-0.000242262
-0.000268306
-0.000221277
-0.000190245
-0.00017373
-0.000123395
-0.000112456
-8.8486e-05
-6.72868e-05
-0.000124034
-7.32841e-05
-0.000230331
-0.000139096
-0.000385172
-0.000280859
-0.000641807
-0.000474634
-0.000578169
-0.000650429
-0.000249843
-0.000811634
-0.000474291
-0.000627591
-0.00993291
-0.00113472
-0.00621292
-0.00169693
-0.00312682
-0.00231639
-0.000592755
-0.00246764
-0.000412897
-0.00243872
0.0001975
-0.00232463
0.00103727
-0.00218028
0.00197693
-0.00203432
0.00287302
-0.0018843
0.00361697
-0.00169365
0.00409473
-0.00140415
0.00411937
-0.000996924
0.00343181
-0.000700515
0.00198668
-0.000628884
0.000963663
-0.000620447
0.00051608
-0.00061512
0.000324305
-0.000588285
0.000244957
-0.000541346
0.000208303
-0.000462232
0.000186369
-0.000399097
0.000142316
-0.000342295
9.55246e-05
-0.000300456
3.42001e-05
-0.000275781
-3.48713e-05
-0.000262796
-0.00010339
-0.000250909
-0.00016669
-0.000233135
-0.000221912
-0.000204632
-0.000263609
-0.000162639
-0.000284223
-0.000107295
-0.000276596
-4.30492e-05
-0.00023796
1.82245e-05
-0.000173723
5.21848e-05
-0.000101247
1.90818e-05
-4.01834e-05
-0.000115023
-4.99513e-06
-0.000362354
-3.35344e-05
-0.000691193
-0.000145802
-0.000980701
-0.000360929
-0.00103409
-0.000758252
-0.0015048
-0.00247695
-0.00710667
-0.00393501
-0.00475481
-0.00412054
-0.00294123
-0.00426274
-0.000450515
-0.00396625
-0.00070934
-0.00366905
-9.96574e-05
-0.00340098
0.000769249
-0.0031066
0.0016826
-0.00277377
0.00254024
-0.00239678
0.00324006
-0.00196175
0.00365984
-0.00145642
0.00361424
-0.000921492
0.00289716
-0.000567754
0.00163312
-0.000407959
0.000803908
-0.000313217
0.000421334
-0.000239068
0.000250142
-0.00016525
0.000171123
-8.86143e-05
0.000131651
-8.49593e-06
0.000106236
5.76482e-05
7.61604e-05
0.000109767
4.33991e-05
0.000142303
1.66517e-06
0.000153945
-4.64996e-05
0.000149343
-9.87634e-05
0.000136212
-0.000153523
0.000121774
-0.000207429
0.000112829
-0.000254611
0.000115343
-0.000286684
0.000133198
-0.000294404
0.000166414
-0.00027114
0.000209639
-0.000216927
0.000249421
-0.000141018
0.000266961
-5.77229e-05
0.00024172
2.0243e-05
0.000130857
7.73234e-05
-0.000109413
9.44619e-05
-0.000448393
-2.19563e-05
-0.000650564
-0.00055609
-0.00213806
-0.00674154
-0.0115141
-0.00798305
-0.00647219
-0.00574987
-0.00268365
-0.00488204
-0.00157712
-0.0043695
-0.000612139
-0.00398056
0.000380371
-0.00356343
0.00126553
-0.00307306
0.00204995
-0.00250254
0.00266965
-0.00186768
0.00302513
-0.00120723
0.002954
-0.000590357
0.00228052
-0.000188801
0.00123169
2.43481e-05
0.00059079
0.000165545
0.000280137
0.000276879
0.0001388
0.000373006
7.49841e-05
0.000458174
4.64698e-05
0.000532003
3.23933e-05
0.000588961
1.91903e-05
0.000629175
3.17631e-06
0.000649044
-1.82041e-05
0.000648129
-4.55751e-05
0.000629502
-8.01129e-05
0.000597011
-0.000120995
0.000555355
-0.000165722
0.000510369
-0.000209561
0.00046903
-0.000245273
0.00043871
-0.000264013
0.000425513
-0.000257882
0.000432132
-0.0002235
0.000455639
-0.000164498
0.000487816
-8.98881e-05
0.000519052
-1.09914e-05
0.000536872
5.94991e-05
0.000526521
0.000104807
0.000423361
8.11953e-05
0.000143202
-0.000275939
-0.00197544
-0.00606153
0.000125268
-0.00511068
-0.00363444
-0.00466469
-0.00202304
-0.00438891
-0.00088786
-0.00403132
2.28496e-05
-0.00357207
0.00080635
-0.00297754
0.00145552
-0.00225193
0.00194415
-0.00144367
0.00221703
-0.000643956
0.00215448
6.97639e-05
0.001567
0.000488165
0.000813373
0.000703856
0.000375134
0.000834105
0.000149905
0.000927601
4.5311e-05
0.000999118
3.46814e-06
0.00105537
-9.78369e-06
0.00109886
-1.11023e-05
0.0011292
-1.11639e-05
0.00114589
-1.35207e-05
0.0011484
-2.07142e-05
0.00113591
-3.30745e-05
0.00110734
-5.15242e-05
0.00106221
-7.5839e-05
0.00100124
-0.000104703
0.000927139
-0.000135389
0.00084543
-0.000163483
0.000764711
-0.000183205
0.000695645
-0.00018873
0.000648622
-0.000176406
0.00063092
-0.000146747
0.000645204
-0.000104145
0.000689361
-5.5137e-05
0.000758131
-9.27167e-06
0.000831069
3.18639e-05
0.000839577
7.26794e-05
0.000590117
-2.64883e-05
-0.00138128
-0.000312827
0.000410557
-0.00240427
-0.00154292
-0.00349406
-0.000933193
-0.00398158
-0.000400278
-0.00392427
-3.44003e-05
-0.00349816
0.000380313
-0.00280392
0.000761369
-0.00190925
0.00104958
-0.000867894
0.0011758
0.000207496
0.00107926
0.00102194
0.000752686
0.00140763
0.000427762
0.00156558
0.000217243
0.00161362
0.000101897
0.00161689
4.20633e-05
0.00160744
1.29319e-05
0.00159617
1.50049e-06
0.0015871
-2.03314e-06
0.00157828
-2.35088e-06
0.00156639
-1.63094e-06
0.00154722
-1.5474e-06
0.00151752
-3.36832e-06
0.00147409
-8.08464e-06
0.00141452
-1.62449e-05
0.00133773
-2.78624e-05
0.00124475
-4.23457e-05
0.00113972
-5.83686e-05
0.00103043
-7.38188e-05
0.000927847
-8.60433e-05
0.000844135
-9.26042e-05
0.000789955
-9.24979e-05
0.000773111
-8.72584e-05
0.000799407
-8.14125e-05
0.000872565
-8.24247e-05
0.000999287
-9.48631e-05
0.001213
-0.00014104
0.00142237
-0.000235869
4.49994e-05
0.00476626
-0.000196446
0.000163751
-0.0014396
-0.00243451
-0.00290003
-0.0030018
-0.00268935
-0.00199643
-0.00101546
9.2212e-05
0.0011053
0.00179455
0.00216146
0.0023201
0.0023653
0.00235216
0.00231098
0.00225912
0.0022042
0.00214927
0.00209526
0.00204148
0.00198602
0.00192602
0.00185805
0.00177871
0.00168516
0.00157592
0.00145157
0.00131533
0.00117282
0.00103061
0.000893732
0.000762634
0.000630284
0.000485033
0.000292893
5.193e-06
)
;

boundaryField
{
    floor
    {
        type            calculated;
        value           nonuniform List<scalar> 
36
(
0
0
0
0
0
0
0
0
0
0
0
0
0
0
0
0
0
0
0
2.36737e-06
6.23794e-06
1.00598e-05
1.31495e-05
1.45659e-05
1.46555e-05
1.60792e-05
2.31963e-06
4.20602e-06
4.08533e-06
4.55634e-06
2.81621e-06
6.75926e-06
7.49506e-06
9.92243e-06
1.14666e-05
1.27615e-05
)
;
    }
    ceiling
    {
        type            calculated;
        value           nonuniform List<scalar> 
43
(
0.000100676
9.74162e-05
5.05102e-05
6.05043e-05
6.17711e-05
6.53045e-05
6.74314e-05
6.79242e-05
6.85266e-05
6.86956e-05
6.82548e-05
6.62857e-05
6.35326e-05
6.09266e-05
5.86636e-05
5.67524e-05
5.52408e-05
5.4137e-05
5.33851e-05
5.28942e-05
5.2584e-05
5.23818e-05
5.22297e-05
5.20876e-05
5.19294e-05
5.17405e-05
5.15143e-05
5.125e-05
5.09526e-05
5.06339e-05
5.03145e-05
5.0024e-05
4.98004e-05
4.96849e-05
4.97177e-05
4.99346e-05
5.03852e-05
5.10911e-05
5.18229e-05
5.67587e-05
2.17753e-05
1.77917e-05
2.76292e-05
)
;
    }
    sWall
    {
        type            calculated;
        value           uniform -0.000116007;
    }
    nWall
    {
        type            calculated;
        value           nonuniform List<scalar> 6(-2.46843e-06 -3.57551e-06 -3.59422e-06 -4.0551e-06 -3.91638e-06 -6.57515e-06);
    }
    sideWalls
    {
        type            empty;
        value           nonuniform 0();
    }
    glass1
    {
        type            calculated;
        value           nonuniform List<scalar> 9(-2.96359e-05 -7.85915e-05 -0.000123377 -0.000169104 -0.000215092 -0.00026118 -0.000306352 -0.000349238 -0.000386847);
    }
    glass2
    {
        type            calculated;
        value           nonuniform List<scalar> 2(-1.73079e-05 -1.94284e-05);
    }
    sun
    {
        type            calculated;
        value           uniform 0;
    }
    Table_master
    {
        type            calculated;
        value           nonuniform List<scalar> 9(-1.49727e-07 -1.49746e-07 -1.49755e-07 -1.49761e-07 -1.49764e-07 -1.49763e-07 -1.49758e-07 -1.49749e-07 -1.49699e-07);
    }
    Table_slave
    {
        type            calculated;
        value           nonuniform List<scalar> 9(1.49618e-07 1.49633e-07 1.49656e-07 1.49689e-07 1.49724e-07 1.49757e-07 1.49782e-07 1.49794e-07 1.49779e-07);
    }
    inlet
    {
        type            calculated;
        value           uniform -0.000535851;
    }
    outlet
    {
        type            calculated;
        value           nonuniform List<scalar> 2(-0.00475057 0.00486566);
    }
}


// ************************************************************************* //
