// -*- C++ -*-
// File generated by PyFoam - sorry for the ugliness

FoamFile
{
 version 2.0;
 format ascii;
 class volScalarField;
 location "100";
 object T;
}

dimensions [ 0 0 0 1 0 0 0 ];

internalField nonuniform List<scalar> 458
(
  308.359
  308.088
  308.033
  308.008
  307.996
  307.989
  307.983
  307.978
  307.972
  307.966
  307.959
  307.95
  307.912
  307.47
  307.032
  306.861
  306.891
  306.9
  306.899
  306.897
  306.896
  306.895
  306.895
  306.895
  306.897
  306.9
  306.905
  306.912
  306.919
  306.926
  306.928
  306.926
  306.924
  308.289
  308.082
  307.982
  307.936
  307.915
  307.91
  307.909
  307.91
  307.914
  307.919
  307.924
  307.926
  307.895
  307.565
  307.081
  306.999
  306.98
  306.951
  306.919
  306.926
  306.935
  306.942
  306.947
  306.949
  306.949
  306.948
  306.946
  306.945
  306.946
  306.948
  306.952
  306.958
  306.963
  306.966
  306.966
  306.96
  308.133
  307.914
  307.823
  307.784
  307.771
  307.773
  307.788
  307.81
  307.836
  307.862
  307.886
  307.901
  307.872
  307.56
  307.167
  307.02
  306.985
  306.966
  306.94
  306.95
  306.959
  306.967
  306.972
  306.974
  306.974
  306.973
  306.971
  306.969
  306.967
  306.966
  306.969
  306.973
  306.977
  306.979
  306.98
  306.975
  308.048
  307.742
  307.672
  307.664
  307.667
  307.677
  307.706
  307.745
  307.787
  307.828
  307.863
  307.883
  307.836
  307.473
  307.116
  307.006
  306.978
  306.968
  306.962
  306.96
  306.97
  306.978
  306.983
  306.985
  306.986
  306.985
  306.984
  306.983
  306.982
  306.982
  306.981
  306.98
  306.981
  306.982
  306.984
  306.985
  306.983
  307.974
  307.602
  307.595
  307.636
  307.653
  307.66
  307.686
  307.727
  307.773
  307.817
  307.853
  307.855
  307.747
  307.372
  307.091
  307.017
  306.999
  306.99
  306.986
  306.985
  306.991
  306.995
  306.997
  306.996
  306.994
  306.991
  306.987
  306.984
  306.981
  306.98
  306.979
  306.979
  306.98
  306.982
  306.984
  306.984
  306.985
  306.987
  306.993
  307.02
  307.893
  307.521
  307.583
  307.671
  307.685
  307.689
  307.707
  307.74
  307.779
  307.815
  307.832
  307.795
  307.634
  307.287
  307.084
  307.034
  307.023
  307.019
  307.016
  307.015
  307.017
  307.018
  307.017
  307.015
  307.01
  307.004
  306.997
  306.99
  306.984
  306.98
  306.978
  306.977
  306.977
  306.978
  306.979
  306.979
  306.977
  306.975
  306.974
  306.977
  307.797
  307.488
  307.583
  307.696
  307.715
  307.724
  307.736
  307.757
  307.783
  307.799
  307.788
  307.712
  307.522
  307.229
  307.09
  307.057
  307.052
  307.051
  307.05
  307.05
  307.051
  307.051
  307.049
  307.045
  307.037
  307.028
  307.016
  307.005
  306.993
  306.984
  306.978
  306.975
  306.974
  306.974
  306.975
  306.975
  306.973
  306.971
  306.969
  306.968
  307.691
  307.445
  307.533
  307.694
  307.721
  307.736
  307.746
  307.757
  307.765
  307.76
  307.722
  307.62
  307.429
  307.202
  307.108
  307.087
  307.086
  307.088
  307.09
  307.091
  307.092
  307.091
  307.089
  307.083
  307.073
  307.061
  307.046
  307.029
  307.011
  306.995
  306.983
  306.975
  306.97
  306.969
  306.969
  306.969
  306.968
  306.967
  306.964
  306.963
  307.578
  307.348
  307.338
  307.617
  307.679
  307.705
  307.721
  307.726
  307.722
  307.701
  307.646
  307.538
  307.37
  307.205
  307.141
  307.128
  307.128
  307.131
  307.133
  307.133
  307.133
  307.132
  307.129
  307.122
  307.111
  307.097
  307.08
  307.059
  307.037
  307.014
  306.994
  306.979
  306.969
  306.964
  306.962
  306.962
  306.962
  306.96
  306.958
  306.956
  306.999
  307.545
  307.622
  307.649
  307.666
  307.67
  307.661
  307.634
  307.578
  307.482
  307.349
  307.234
  307.195
  307.182
  307.178
  307.176
  307.174
  307.173
  307.17
  307.167
  307.162
  307.155
  307.144
  307.13
  307.112
  307.089
  307.064
  307.036
  307.01
  306.987
  306.97
  306.96
  306.955
  306.953
  306.952
  306.952
  306.95
  306.947
  307.305
  307.546
  307.582
  307.598
  307.606
  307.608
  307.598
  307.573
  307.528
  307.452
  307.351
  307.288
  307.256
  307.238
  307.226
  307.217
  307.209
  307.203
  307.197
  307.192
  307.185
  307.177
  307.166
  307.152
  307.134
  307.111
  307.084
  307.053
  307.022
  306.994
  306.971
  306.956
  306.947
  306.943
  306.941
  306.939
  306.937
  306.94
  309.731
  309.565
  307.688
  307.553
  307.542
  307.545
  307.547
  307.548
  307.542
  307.526
  307.495
  307.428
  307.374
  307.335
  307.306
  307.283
  307.264
  307.247
  307.233
  307.221
  307.211
  307.202
  307.193
  307.184
  307.173
  307.16
  307.143
  307.122
  307.094
  307.062
  307.026
  306.99
  306.959
  306.936
  306.922
  306.916
  306.913
  306.911
  306.906
  306.892
)
;

boundaryField
{
  floor
  {
    type wallHeatTransfer;
    Tinf uniform 305.2;
    alphaWall uniform 0.24;
    value nonuniform List<scalar> 36
(
  306.715
  306.478
  306.453
  306.389
  306.345
  306.315
  306.306
  306.314
  306.334
  306.364
  306.4
  306.439
  306.478
  306.517
  306.556
  306.59
  306.617
  306.63
  306.602
  306.602
  306.676
  306.701
  306.727
  306.741
  306.746
  306.749
  306.715
  306.716
  306.705
  306.644
  306.478
  306.644
  306.579
  306.696
  306.627
  306.675
)
;
  }
  ceiling
  {
    type wallHeatTransfer;
    Tinf uniform 303.2;
    alphaWall uniform 0.24;
    value nonuniform List<scalar> 43
(
  309.147
  308.994
  307.396
  307.203
  307.184
  307.167
  307.157
  307.155
  307.146
  307.129
  307.102
  307.046
  307.007
  306.983
  306.967
  306.955
  306.944
  306.934
  306.924
  306.915
  306.907
  306.899
  306.891
  306.883
  306.873
  306.861
  306.846
  306.826
  306.8
  306.769
  306.735
  306.701
  306.671
  306.65
  306.636
  306.628
  306.623
  306.617
  306.608
  306.567
  307.406
  307.206
  307.125
)
;
  }
  sWall
  {
    type wallHeatTransfer;
    Tinf uniform 315.2;
    alphaWall uniform 0.36;
    value uniform 310.435;
  }
  nWall
  {
    type wallHeatTransfer;
    Tinf uniform 307.2;
    alphaWall uniform 0.36;
    value nonuniform List<scalar> 6
(
  307.057
  307.021
  307.006
  306.977
  306.965
  306.931
)
;
  }
  sideWalls
  {
    type empty;
  }
  glass1
  {
    type wallHeatTransfer;
    Tinf uniform 315.2;
    alphaWall uniform 4.3;
    value nonuniform List<scalar> 9
(
  312.562
  312.023
  311.672
  311.529
  311.421
  311.314
  311.188
  311.031
  310.817
)
;
  }
  glass2
  {
    type wallHeatTransfer;
    Tinf uniform 307.2;
    alphaWall uniform 4.3;
    value nonuniform List<scalar> 2
(
  307.122
  307.113
)
;
  }
  sun
  {
    type wallHeatTransfer;
    Tinf uniform 305.2;
    alphaWall uniform 0.24;
    value nonuniform List<scalar> 14
(
  308.104
  307.903
  307.846
  307.816
  307.797
  307.783
  307.77
  307.756
  307.742
  307.726
  307.707
  307.681
  307.619
  307.151
)
;
  }
  Table_master
  {
    type zeroGradient;
  }
  Table_slave
  {
    type zeroGradient;
  }
  inlet
  {
    type fixedValue;
    value uniform 295.15;
  }
  outlet
  {
    type zeroGradient;
  }
} 	// ************************************************************************* //

