// -*- C++ -*-
// File generated by PyFoam - sorry for the ugliness

FoamFile
{
 version 2.0;
 format ascii;
 class volVectorField;
 location "100";
 object U;
}

dimensions [ 0 1 -1 0 0 0 0 ];

internalField nonuniform List<vector> 458
(
  (0.0395877 0.0873451 0)
  (0.0773024 -0.160338 0)
  (0.180302 -0.116618 0)
  (0.267528 -0.0724099 0)
  (0.316958 -0.0440286 0)
  (0.332917 -0.0265078 0)
  (0.327611 -0.0136268 0)
  (0.308886 -0.0027545 0)
  (0.279685 0.00678269 0)
  (0.241331 0.0154398 0)
  (0.194949 0.0239557 0)
  (0.14112 0.0337893 0)
  (0.0799081 0.0470058 0)
  (-0.00905621 0.0331454 0)
  (0.000573206 -0.00850845 0)
  (-0.0884204 -0.00246246 0)
  (0.0235806 0.00878471 0)
  (-0.01827 0.0064233 0)
  (-0.0240089 0.00324715 0)
  (-0.0279476 0.00136637 0)
  (-0.0303054 0.000385956 0)
  (-0.0317236 -8.2337e-06 0)
  (-0.0327006 -0.000140421 0)
  (-0.0334478 -0.000209105 0)
  (-0.0340585 -0.000289752 0)
  (-0.0346702 -0.000396291 0)
  (-0.0352982 -0.000548194 0)
  (-0.0353194 -0.00095923 0)
  (-0.0336259 -0.00215489 0)
  (-0.0311028 -0.00436104 0)
  (-0.0323389 -0.00583538 0)
  (-0.0305946 -0.00698643 0)
  (0.0626176 -0.0140613 0)
  (0.413522 -0.0413545 0)
  (0.203187 -0.168941 0)
  (0.24779 -0.130179 0)
  (0.301047 -0.0688921 0)
  (0.322803 -0.0258588 0)
  (0.325507 0.00369238 0)
  (0.313271 0.0257166 0)
  (0.290306 0.0430587 0)
  (0.257883 0.0567264 0)
  (0.217311 0.0676213 0)
  (0.170351 0.0768732 0)
  (0.119212 0.0857635 0)
  (0.068738 0.0937881 0)
  (0.00810644 0.0734673 0)
  (-0.0141782 -0.0159494 0)
  (-0.0191916 -0.0664951 0)
  (-0.0591951 -0.0737478 0)
  (0.162557 -0.116367 0)
  (-0.106816 0.0109562 0)
  (0.00327043 0.0144311 0)
  (-0.0250318 0.0129269 0)
  (-0.028255 0.00889229 0)
  (-0.0303889 0.0064616 0)
  (-0.0311961 0.00477965 0)
  (-0.0313961 0.00409471 0)
  (-0.0313847 0.00365318 0)
  (-0.0313561 0.00324685 0)
  (-0.0313339 0.00284374 0)
  (-0.031389 0.00249025 0)
  (-0.0315979 0.00216043 0)
  (-0.0316694 0.0012963 0)
  (-0.0304832 -0.00165592 0)
  (-0.027528 -0.00736935 0)
  (-0.0276457 -0.0114137 0)
  (-0.0362548 -0.014267 0)
  (0.103006 -0.0148794 0)
  (0.558445 -0.296166 0)
  (0.146948 -0.267776 0)
  (0.210766 -0.168094 0)
  (0.250982 -0.0917346 0)
  (0.254282 -0.0422465 0)
  (0.2495 -0.00447215 0)
  (0.238383 0.0296305 0)
  (0.220143 0.0593823 0)
  (0.194054 0.0840015 0)
  (0.16099 0.103738 0)
  (0.122657 0.119327 0)
  (0.0814697 0.131279 0)
  (0.043861 0.136386 0)
  (0.00512234 0.102809 0)
  (0.00173264 0.0313366 0)
  (-0.00323832 -0.000402608 0)
  (-0.0332246 -0.0103501 0)
  (0.138773 0.0391828 0)
  (-0.115047 0.0341637 0)
  (-0.0153127 0.0203031 0)
  (-0.0337013 0.0155679 0)
  (-0.0339292 0.00985425 0)
  (-0.0335469 0.00385105 0)
  (-0.0316414 -0.00493664 0)
  (-0.0301811 -0.00655835 0)
  (-0.0292076 -0.00663073 0)
  (-0.0284435 -0.00642719 0)
  (-0.0277939 -0.00604361 0)
  (-0.0272245 -0.00558057 0)
  (-0.0269983 -0.00529824 0)
  (-0.0276412 -0.00596022 0)
  (-0.0281904 -0.00899102 0)
  (-0.0247488 -0.0137182 0)
  (-0.0253562 -0.0189185 0)
  (-0.0323507 -0.0256288 0)
  (0.109494 -0.0158699 0)
  (0.600595 -0.422831 0)
  (-0.0329172 -0.286107 0)
  (0.122549 -0.152608 0)
  (0.154244 -0.0810729 0)
  (0.145075 -0.0344506 0)
  (0.141062 0.00795194 0)
  (0.138289 0.0468404 0)
  (0.129306 0.0811956 0)
  (0.113098 0.110598 0)
  (0.0908502 0.134903 0)
  (0.0639848 0.153968 0)
  (0.0346057 0.16698 0)
  (0.0104361 0.166903 0)
  (-0.0107878 0.112242 0)
  (-0.00848339 0.030947 0)
  (-0.0243024 -0.0049972 0)
  (-0.0453863 -0.014504 0)
  (-0.0436022 -0.00970903 0)
  (-0.0650604 -0.0303424 0)
  (-0.0676462 0.0322352 0)
  (-0.0361097 0.0181998 0)
  (-0.041499 0.014086 0)
  (-0.0388952 0.00866264 0)
  (-0.0372432 0.00258463 0)
  (-0.0357642 -0.00430203 0)
  (-0.0336796 -0.00494367 0)
  (-0.0303785 -0.00553188 0)
  (-0.0263824 -0.00568934 0)
  (-0.0223834 -0.00542012 0)
  (-0.0190866 -0.00478782 0)
  (-0.0169218 -0.00405715 0)
  (-0.0152279 -0.0039569 0)
  (-0.0138158 -0.00592202 0)
  (-0.0175843 -0.0131594 0)
  (-0.0241353 -0.021102 0)
  (-0.0208038 -0.030262 0)
  (0.043921 -0.0350359 0)
  (0.617947 -0.485367 0)
  (-0.182883 -0.294166 0)
  (0.0803325 -0.158119 0)
  (0.0745817 -0.0834115 0)
  (0.0473146 -0.0374593 0)
  (0.0421763 0.00746898 0)
  (0.0454324 0.0517581 0)
  (0.0426727 0.0916017 0)
  (0.0343149 0.126435 0)
  (0.0216384 0.155489 0)
  (0.00537935 0.177991 0)
  (-0.0118774 0.18975 0)
  (-0.0207487 0.178099 0)
  (-0.0249776 0.111443 0)
  (-0.0202937 0.0398965 0)
  (-0.0325869 0.0138412 0)
  (-0.0451398 0.00847558 0)
  (-0.0520118 0.0126875 0)
  (-0.0535326 0.0118545 0)
  (-0.049171 0.0199502 0)
  (-0.0403949 0.0130368 0)
  (-0.0395551 0.0109166 0)
  (-0.0366245 0.00686016 0)
  (-0.0346685 0.00246482 0)
  (-0.0330416 -0.00140953 0)
  (-0.0310476 -0.00374016 0)
  (-0.0283113 -0.00513359 0)
  (-0.0249584 -0.00567667 0)
  (-0.0212726 -0.00532193 0)
  (-0.0176258 -0.00407853 0)
  (-0.0144374 -0.00223984 0)
  (-0.0120205 -0.00069914 0)
  (-0.0110807 -0.00167351 0)
  (-0.0141951 -0.00861764 0)
  (-0.0231355 -0.0189349 0)
  (-0.0357362 -0.0344541 0)
  (-0.0461288 -0.0666716 0)
  (-0.0430439 -0.13958 0)
  (-0.013473 -0.159084 0)
  (-0.0582175 -0.236713 0)
  (0.592129 -0.49615 0)
  (-0.236968 -0.300477 0)
  (0.0449024 -0.164235 0)
  (-0.000948737 -0.0584228 0)
  (-0.0393904 -0.0247757 0)
  (-0.0407879 0.0125553 0)
  (-0.0360836 0.0534277 0)
  (-0.0345173 0.0953971 0)
  (-0.0355975 0.133828 0)
  (-0.0390318 0.165901 0)
  (-0.0438637 0.188922 0)
  (-0.0471518 0.19638 0)
  (-0.0425553 0.174633 0)
  (-0.034356 0.104866 0)
  (-0.0274911 0.0449116 0)
  (-0.0326508 0.0210325 0)
  (-0.0375138 0.0127851 0)
  (-0.04035 0.0120193 0)
  (-0.0404462 0.0127593 0)
  (-0.0375183 0.0133904 0)
  (-0.033083 0.0100404 0)
  (-0.0308177 0.00781416 0)
  (-0.0282873 0.00421615 0)
  (-0.0264254 0.000107904 0)
  (-0.0250937 -0.00355878 0)
  (-0.0237444 -0.00626972 0)
  (-0.0219348 -0.00819294 0)
  (-0.0195755 -0.00925077 0)
  (-0.0166848 -0.00925854 0)
  (-0.0133806 -0.00809062 0)
  (-0.00989583 -0.00588243 0)
  (-0.00658547 -0.00327861 0)
  (-0.00411072 -0.00167988 0)
  (-0.0037447 -0.00275316 0)
  (-0.0066557 -0.00555196 0)
  (-0.0137482 -0.00815717 0)
  (-0.0238645 -0.00728121 0)
  (-0.0243922 -0.000190227 0)
  (-0.0149196 0.00876637 0)
  (-0.0630103 0.0725647 0)
  (0.503224 -0.456043 0)
  (-0.212195 -0.279038 0)
  (-0.0444503 -0.143212 0)
  (-0.0671135 -0.0297259 0)
  (-0.110452 -0.0165867 0)
  (-0.109086 0.0124067 0)
  (-0.103802 0.0504553 0)
  (-0.0973992 0.092279 0)
  (-0.0909536 0.131792 0)
  (-0.0847699 0.164686 0)
  (-0.0780578 0.186491 0)
  (-0.068619 0.189243 0)
  (-0.0533083 0.160524 0)
  (-0.0369929 0.0937799 0)
  (-0.0277208 0.0444581 0)
  (-0.0271641 0.0233675 0)
  (-0.0270941 0.0145316 0)
  (-0.0264988 0.0112485 0)
  (-0.0248565 0.0101141 0)
  (-0.0220427 0.00947878 0)
  (-0.0186069 0.00727767 0)
  (-0.0160867 0.00506709 0)
  (-0.0138994 0.00200031 0)
  (-0.0123825 -0.00148357 0)
  (-0.0116703 -0.00481844 0)
  (-0.0111991 -0.00770315 0)
  (-0.0105925 -0.0100588 0)
  (-0.00960541 -0.01168 0)
  (-0.00807575 -0.0122752 0)
  (-0.00594111 -0.0115918 0)
  (-0.0032873 -0.00959182 0)
  (-0.000405008 -0.00663983 0)
  (0.00190916 -0.00381756 0)
  (0.00242667 -0.00241364 0)
  (-0.000680268 -0.00342417 0)
  (-0.0101196 -0.00889134 0)
  (-0.0232188 -0.0183102 0)
  (-0.0314186 -0.0287795 0)
  (-0.041174 -0.0439245 0)
  (-0.0936245 -0.0659529 0)
  (0.355254 -0.352322 0)
  (-0.255454 -0.217693 0)
  (-0.202442 -0.127822 0)
  (-0.140224 -0.00378554 0)
  (-0.184633 -0.0184349 0)
  (-0.16698 0.00564319 0)
  (-0.154283 0.0422834 0)
  (-0.141789 0.0828043 0)
  (-0.127951 0.121343 0)
  (-0.112591 0.153028 0)
  (-0.0953677 0.17244 0)
  (-0.075499 0.171257 0)
  (-0.0524475 0.139417 0)
  (-0.0312108 0.0797194 0)
  (-0.0198612 0.0396458 0)
  (-0.0153204 0.0214088 0)
  (-0.0119036 0.0131575 0)
  (-0.00880288 0.0094094 0)
  (-0.00557217 0.00757796 0)
  (-0.00215811 0.00645298 0)
  (0.00122794 0.00480191 0)
  (0.00378002 0.00302608 0)
  (0.00569861 0.000760394 0)
  (0.0066717 -0.00179352 0)
  (0.00673603 -0.00443602 0)
  (0.00629013 -0.00702612 0)
  (0.00563812 -0.00940838 0)
  (0.00508134 -0.0113191 0)
  (0.00489772 -0.0123994 0)
  (0.00531037 -0.0122906 0)
  (0.00642648 -0.0107998 0)
  (0.00816321 -0.00806318 0)
  (0.0101176 -0.00461757 0)
  (0.011567 -0.00113288 0)
  (0.011592 0.00186634 0)
  (0.00893577 0.00341546 0)
  (0.00250356 0.00153722 0)
  (-0.0063068 -0.00862984 0)
  (-0.0231141 -0.0330289 0)
  (-0.107865 -0.0835937 0)
  (0.145102 -0.23201 0)
  (-0.454052 -0.204415 0)
  (-0.57051 -0.197434 0)
  (-0.173916 -0.077347 0)
  (-0.240577 -0.0490586 0)
  (-0.203736 -0.0131181 0)
  (-0.182535 0.0268693 0)
  (-0.164864 0.0666511 0)
  (-0.144934 0.102999 0)
  (-0.121767 0.132046 0)
  (-0.095776 0.148748 0)
  (-0.0679205 0.145494 0)
  (-0.0394941 0.114728 0)
  (-0.014887 0.0649408 0)
  (-0.00187407 0.0331386 0)
  (0.00498599 0.0183865 0)
  (0.0100142 0.0118625 0)
  (0.0143503 0.00869765 0)
  (0.0182309 0.00706584 0)
  (0.0216856 0.00605829 0)
  (0.0245962 0.00506698 0)
  (0.0267245 0.00400251 0)
  (0.0281205 0.00270667 0)
  (0.0284813 0.00115498 0)
  (0.0280195 -0.000626386 0)
  (0.0268717 -0.0026005 0)
  (0.0252126 -0.00465668 0)
  (0.0232688 -0.00657736 0)
  (0.0213168 -0.00802488 0)
  (0.0196754 -0.00859072 0)
  (0.01866 -0.00792912 0)
  (0.0184958 -0.00593709 0)
  (0.0191996 -0.0028726 0)
  (0.0205347 0.000751066 0)
  (0.0220261 0.00434789 0)
  (0.0232388 0.00734082 0)
  (0.0237518 0.00941617 0)
  (0.0228372 0.00831495 0)
  (0.0110144 -0.00938968 0)
  (-0.0602721 -0.079659 0)
  (-1.2189 -0.202259 0)
  (-0.0730918 -0.159311 0)
  (-0.217308 -0.0872258 0)
  (-0.202191 -0.026851 0)
  (-0.18613 0.0229568 0)
  (-0.166913 0.0562638 0)
  (-0.143518 0.0843657 0)
  (-0.114493 0.106288 0)
  (-0.0812753 0.118146 0)
  (-0.0465788 0.113476 0)
  (-0.0125904 0.0858844 0)
  (0.0153984 0.0463344 0)
  (0.0279427 0.0258956 0)
  (0.0346484 0.016288 0)
  (0.0389488 0.0118308 0)
  (0.0422547 0.00975667 0)
  (0.0449471 0.00866724 0)
  (0.047091 0.00804789 0)
  (0.0487145 0.00750075 0)
  (0.0497735 0.0068457 0)
  (0.0501953 0.00593213 0)
  (0.0499773 0.00465098 0)
  (0.0490891 0.00289627 0)
  (0.0474827 0.000646817 0)
  (0.0451527 -0.00201654 0)
  (0.0421651 -0.00488756 0)
  (0.0386924 -0.00761706 0)
  (0.0350441 -0.00973958 0)
  (0.0316591 -0.0107721 0)
  (0.0290302 -0.0103771 0)
  (0.0275711 -0.00851573 0)
  (0.0275071 -0.00546062 0)
  (0.0288549 -0.00171541 0)
  (0.0314485 0.00208426 0)
  (0.0349292 0.00489385 0)
  (0.0372138 0.00566774 0)
  (0.0304985 -0.00489941 0)
  (0.0145838 -0.0772793 0)
  (-0.309052 -0.0296946 0)
  (0.0295059 -0.155171 0)
  (-0.141984 -0.1369 0)
  (-0.169507 -0.123577 0)
  (-0.176141 -0.0998009 0)
  (-0.163893 -0.0541654 0)
  (-0.138543 -0.0160519 0)
  (-0.103396 0.0121151 0)
  (-0.0618329 0.0281412 0)
  (-0.0161404 0.0240647 0)
  (0.0288659 -0.0105881 0)
  (0.0555253 -0.0483316 0)
  (0.0671122 -0.0734576 0)
  (0.070703 -0.0871219 0)
  (0.0710805 -0.092801 0)
  (0.0705687 -0.0938933 0)
  (0.0699503 -0.09276 0)
  (0.0694649 -0.0909528 0)
  (0.0690792 -0.0892855 0)
  (0.0686465 -0.0880027 0)
  (0.0679939 -0.0870853 0)
  (0.066958 -0.0864493 0)
  (0.0653927 -0.0859969 0)
  (0.0631685 -0.0856371 0)
  (0.0602002 -0.0853048 0)
  (0.0564774 -0.0849619 0)
  (0.0521035 -0.08459 0)
  (0.0473343 -0.0841859 0)
  (0.0425872 -0.0837655 0)
  (0.0383906 -0.0833761 0)
  (0.0352754 -0.0831051 0)
  (0.033669 -0.0830576 0)
  (0.0338676 -0.0832929 0)
  (0.0360755 -0.0837347 0)
  (0.0404985 -0.0840797 0)
  (0.0470756 -0.0850954 0)
  (0.0594901 -0.0962642 0)
  (0.0417481 -0.171292 0)
  (0.57528 0.213083 0)
  (0.239883 -0.204586 0)
  (-0.243265 0.318124 0)
  (0.0386772 0.231256 0)
  (-0.0960775 0.267121 0)
  (-0.122088 0.304243 0)
  (-0.132085 0.313046 0)
  (-0.126139 0.292872 0)
  (-0.10291 0.284717 0)
  (-0.0675186 0.285673 0)
  (-0.0252311 0.291953 0)
  (0.0292182 0.293729 0)
  (0.0649243 0.293905 0)
  (0.0884075 0.297771 0)
  (0.0999668 0.302095 0)
  (0.103716 0.303482 0)
  (0.103633 0.301884 0)
  (0.101998 0.298656 0)
  (0.0997841 0.295046 0)
  (0.0973867 0.291841 0)
  (0.0949695 0.289462 0)
  (0.0925923 0.287928 0)
  (0.0902526 0.28701 0)
  (0.0878922 0.286436 0)
  (0.0854036 0.285981 0)
  (0.0826446 0.285507 0)
  (0.07946 0.28498 0)
  (0.0757051 0.284456 0)
  (0.0712746 0.284075 0)
  (0.0661379 0.284031 0)
  (0.0603743 0.284546 0)
  (0.0541882 0.285811 0)
  (0.0478771 0.287919 0)
  (0.0417354 0.290816 0)
  (0.0359047 0.294264 0)
  (0.030146 0.29784 0)
  (0.0239364 0.301176 0)
  (0.0180175 0.304778 0)
  (0.0266402 0.322576 0)
  (-0.0923921 0.465773 0)
)
;

boundaryField
{
  floor
  {
    type noSlip;
  }
  ceiling
  {
    type noSlip;
  }
  sWall
  {
    type noSlip;
  }
  nWall
  {
    type noSlip;
  }
  sideWalls
  {
    type empty;
  }
  glass1
  {
    type noSlip;
  }
  glass2
  {
    type noSlip;
  }
  sun
  {
    type noSlip;
  }
  Table_master
  {
    type noSlip;
  }
  Table_slave
  {
    type noSlip;
  }
  inlet
  {
    type fixedValue;
    value uniform (0.0707107 -0.0707107 0);
  }
  outlet
  {
    type zeroGradient;
  }
} 	// ************************************************************************* //

