/*--------------------------------*- C++ -*----------------------------------*\
  =========                 |
  \\      /  F ield         | OpenFOAM: The Open Source CFD Toolbox
   \\    /   O peration     | Website:  https://openfoam.org
    \\  /    A nd           | Version:  6
     \\/     M anipulation  |
\*---------------------------------------------------------------------------*/
FoamFile
{
    version     2.0;
    format      ascii;
    class       volScalarField;
    location    "1150";
    object      alphat;
}
// * * * * * * * * * * * * * * * * * * * * * * * * * * * * * * * * * * * * * //

dimensions      [1 -1 -1 0 0 0 0];

internalField   nonuniform List<scalar> 
458
(
0.00124413
0.00135526
0.00138596
0.00145228
0.00151337
0.00157122
0.00162909
0.00168784
0.00173589
0.0017661
0.00176953
0.00173741
0.00165867
0.00149196
0.00113181
0.000559121
0.000655492
0.000743178
0.0007749
0.000762761
0.000713773
0.000659578
0.000611087
0.000569085
0.000532603
0.000500747
0.000472871
0.000448153
0.000425639
0.000404286
0.000382844
0.000370097
0.000340113
0.00167646
0.00377415
0.00348144
0.00398905
0.00449518
0.00501584
0.00548309
0.00584449
0.00621583
0.00656358
0.00684262
0.00701209
0.00702778
0.00678282
0.00551203
0.0014941
0.00123952
0.00101124
0.0005546
0.00131634
0.00191847
0.00238455
0.0025319
0.00184523
0.00155772
0.0013621
0.00121773
0.00110711
0.00101934
0.000943651
0.000872529
0.000801535
0.000738116
0.00068495
0.000837916
0.000447104
0.00203697
0.00507215
0.0041863
0.00510416
0.00548992
0.00576082
0.00596905
0.00616135
0.00642928
0.00675519
0.00711141
0.00746037
0.00773556
0.00783142
0.0073787
0.00601345
0.00455724
0.0011944
0.000854258
0.0014742
0.00214515
0.00281246
0.003003
0.000959365
0.000839902
0.00074051
0.000660005
0.000595037
0.000542389
0.000499592
0.000464981
0.000438061
0.000485432
0.000562185
0.000983171
0.000528376
0.00238379
0.00647792
0.00407212
0.00528752
0.00549851
0.00547735
0.00545777
0.00554995
0.00576806
0.00609084
0.00650092
0.00695802
0.0073578
0.00760858
0.00755115
0.00716013
0.00614506
0.00337363
0.00137595
0.00175185
0.00240816
0.00321185
0.00390853
0.00394267
0.00108052
0.000990416
0.000929042
0.000883745
0.000845444
0.00080737
0.000771226
0.000733039
0.000688407
0.000648442
0.000639026
0.00117177
0.000608553
0.00273784
0.00836872
0.00427107
0.00501898
0.00532045
0.00514003
0.00499318
0.00507682
0.00530727
0.00564347
0.00608585
0.00658724
0.00697902
0.00717352
0.00716799
0.00703066
0.00662529
0.00547847
0.00496517
0.00500088
0.00529193
0.00563871
0.00585143
0.00575506
0.00490993
0.0044754
0.00423592
0.00406439
0.00389083
0.00366748
0.00328731
0.00279778
0.00224102
0.00170471
0.00127868
0.00119141
0.00103431
0.00081332
0.00086076
0.000935588
0.00311666
0.0104976
0.00584892
0.00464675
0.00506388
0.00505292
0.00486533
0.00493496
0.00517022
0.00550686
0.00595578
0.00643651
0.00679923
0.00691467
0.00680417
0.00664654
0.00657555
0.00648088
0.0066756
0.00701341
0.00725024
0.00729216
0.00713224
0.00679787
0.0063311
0.00595195
0.0056567
0.00539657
0.00514112
0.00486999
0.00451982
0.0040397
0.00343243
0.00274557
0.00210987
0.00153002
0.00125757
0.00109691
0.00138121
0.000970514
0.00348932
0.0121021
0.00872474
0.00571067
0.0049692
0.00504015
0.00510351
0.00514036
0.00527423
0.00557147
0.00601346
0.00648995
0.00682233
0.00685869
0.00664932
0.00649789
0.00674692
0.00729955
0.00786212
0.00817943
0.00817975
0.00790721
0.00744593
0.00688456
0.00632548
0.00587552
0.00553481
0.00525848
0.00501676
0.00479975
0.00460233
0.00434417
0.00391975
0.00335258
0.00276348
0.00219751
0.00182812
0.00167469
0.00159627
0.00115312
0.00357893
0.0112147
0.00952695
0.00799843
0.0068287
0.00631046
0.00582363
0.00549393
0.00549014
0.00577422
0.00623148
0.00670196
0.00698129
0.00691629
0.00665974
0.00672338
0.00743539
0.00801962
0.00832375
0.00830946
0.00797901
0.00740771
0.00670501
0.0059963
0.00540724
0.00499444
0.00471595
0.00451596
0.00436794
0.00426817
0.00422387
0.00422596
0.00411292
0.00377582
0.00344728
0.00326423
0.00334397
0.00352996
0.00419316
0.00178525
0.00350479
0.00423034
0.00467526
0.00492477
0.00496201
0.00488875
0.00489232
0.00510065
0.00552055
0.00605432
0.00659944
0.00702806
0.00716473
0.0069174
0.00684736
0.00720844
0.00762583
0.00776868
0.0076647
0.00730186
0.00669394
0.00594328
0.00519381
0.00457872
0.00415307
0.003882
0.00370013
0.00356192
0.0034441
0.00333346
0.00322002
0.00309546
0.00298246
0.00288464
0.00281983
0.00278327
0.00271382
0.00257087
0.00239719
0.00166672
0.00157968
0.00276039
0.00377648
0.00457225
0.00530121
0.0060103
0.0065718
0.00694762
0.00719158
0.0072243
0.00698625
0.0066975
0.00669863
0.00681813
0.00672616
0.00645525
0.00602813
0.00545314
0.00479194
0.00414584
0.00363148
0.00328498
0.00307251
0.0029421
0.0028555
0.00279235
0.00274397
0.00270824
0.00268817
0.00269441
0.00271013
0.00272414
0.00272484
0.00268171
0.00254872
0.00231444
0.0020242
0.00134113
0.00238084
0.00465385
0.00595187
0.00679253
0.00744603
0.00749579
0.00710384
0.00671035
0.00637244
0.00573435
0.00528122
0.00517606
0.00510472
0.00490493
0.00460388
0.00423064
0.00379308
0.00333269
0.00291752
0.00259462
0.0023719
0.00224343
0.00218321
0.00217017
0.00219136
0.00223853
0.00230455
0.00238095
0.00247038
0.00257301
0.00268286
0.00279071
0.00287844
0.00292223
0.00288131
0.00284563
0.00261998
0.00135861
0.00249159
0.00255349
0.00260943
0.00289321
0.00272895
0.0024141
0.00203343
0.00172842
0.00154188
0.00136506
0.00120956
0.00108789
0.000984899
0.000906861
0.000852634
0.000813018
0.00078116
0.000753751
0.00073112
0.000715849
0.000710151
0.000714425
0.000727112
0.000745762
0.000769327
0.000797252
0.000829379
0.000865898
0.00090741
0.000955215
0.00100961
0.00107019
0.00113727
0.00121115
0.00129189
0.00138862
0.00143093
0.00140159
0.00130364
0.00120555
)
;

boundaryField
{
    floor
    {
        type            compressible::alphatWallFunction;
        Prt             0.85;
        value           nonuniform List<scalar> 
36
(
0.000160688
7.82034e-05
9.26095e-05
0.000105494
0.000110109
0.000108346
0.000101196
9.32152e-05
8.6007e-05
7.97066e-05
7.41874e-05
6.93296e-05
6.5047e-05
6.12227e-05
5.77163e-05
5.43686e-05
5.09841e-05
4.89606e-05
4.41648e-05
4.41642e-05
6.10606e-05
7.35461e-05
8.56301e-05
0.000115678
0.000122505
0.000133176
0.000160686
0.000210158
0.00017556
0.000143843
7.82024e-05
0.000143842
7.75197e-05
0.000169347
0.000121556
0.000194193
)
;
    }
    ceiling
    {
        type            compressible::alphatWallFunction;
        Prt             0.85;
        value           nonuniform List<scalar> 
43
(
0.000340273
0.000348136
0.000355227
0.000391032
0.000370436
0.000330536
0.000281527
0.000241539
0.000216704
0.000192849
0.000171578
0.000154716
0.000140271
0.000129209
0.000121456
0.000115756
0.000111147
0.000107164
0.000103863
0.000101628
0.000100793
0.000101419
0.000103277
0.000106001
0.00010943
0.000113479
0.000118115
0.00012336
0.000129289
0.000136079
0.000143756
0.00015225
0.00016159
0.000171805
0.000182886
0.000196061
0.000201791
0.00019782
0.000184495
0.000171037
0.000467121
0.000555328
0.000326053
)
;
    }
    sWall
    {
        type            compressible::alphatWallFunction;
        Prt             0.85;
        value           uniform 0.00033903;
    }
    nWall
    {
        type            compressible::alphatWallFunction;
        Prt             0.85;
        value           nonuniform List<scalar> 6(0.000132957 0.000137898 0.000163429 0.000189266 0.000191643 0.000170696);
    }
    sideWalls
    {
        type            empty;
    }
    glass1
    {
        type            compressible::alphatWallFunction;
        Prt             0.85;
        value           nonuniform List<scalar> 9(0.000171662 0.000229168 0.000275993 0.000320289 0.000364873 0.000411954 0.000457735 0.000468805 0.000459998);
    }
    glass2
    {
        type            compressible::alphatWallFunction;
        Prt             0.85;
        value           nonuniform List<scalar> 2(0.000247085 0.000231544);
    }
    sun
    {
        type            compressible::alphatWallFunction;
        Prt             0.85;
        value           nonuniform List<scalar> 
14
(
0.000176212
0.000191381
0.00019555
0.000204524
0.000212749
0.000220503
0.000228228
0.000236041
0.000242408
0.0002464
0.000246853
0.000242607
0.000232164
0.000209869
)
;
    }
    Table_master
    {
        type            compressible::alphatWallFunction;
        Prt             0.85;
        value           nonuniform List<scalar> 9(0.00013668 0.000119642 0.000105247 9.3417e-05 8.37415e-05 7.5805e-05 6.92827e-05 6.39566e-05 5.97791e-05);
    }
    Table_slave
    {
        type            compressible::alphatWallFunction;
        Prt             0.85;
        value           nonuniform List<scalar> 9(0.000153709 0.000141069 0.000132383 0.000125929 0.000120442 0.000114957 0.000109722 0.000104159 9.7612e-05);
    }
    inlet
    {
        type            fixedValue;
        value           uniform 1.94e-05;
    }
    outlet
    {
        type            zeroGradient;
    }
}


// ************************************************************************* //
