/*--------------------------------*- C++ -*----------------------------------*\
  =========                 |
  \\      /  F ield         | OpenFOAM: The Open Source CFD Toolbox
   \\    /   O peration     | Website:  https://openfoam.org
    \\  /    A nd           | Version:  6
     \\/     M anipulation  |
\*---------------------------------------------------------------------------*/
FoamFile
{
    version     2.0;
    format      ascii;
    class       volScalarField;
    location    "1150";
    object      k;
}
// * * * * * * * * * * * * * * * * * * * * * * * * * * * * * * * * * * * * * //

dimensions      [0 2 -2 0 0 0 0];

internalField   nonuniform List<scalar> 
458
(
0.00226792
0.00268622
0.00280903
0.00308425
0.00334911
0.00360993
0.00388065
0.0041655
0.00440585
0.00456025
0.00457775
0.00441293
0.00402209
0.00325454
0.00187347
0.000457631
0.000628889
0.000808357
0.000878872
0.000851591
0.000745744
0.000636822
0.000546647
0.000474099
0.000415276
0.000367096
0.000327374
0.000294054
0.000265261
0.000239321
0.000214617
0.000200573
0.000169416
0.00412322
0.00755203
0.00415071
0.00437471
0.00471666
0.00513604
0.00563323
0.00619765
0.0068017
0.00731413
0.00758943
0.00753195
0.00712446
0.00635508
0.00513873
0.00326436
0.00224685
0.00149568
0.000450298
0.000973157
0.00130332
0.00145845
0.00147283
0.00125947
0.00102442
0.000834078
0.000688792
0.000577362
0.000490693
0.000421533
0.000364714
0.00031745
0.000283519
0.000264389
0.000493855
0.000292749
0.00609536
0.0136488
0.00491198
0.00472565
0.00494237
0.00528695
0.00575189
0.00634207
0.00699523
0.00755195
0.00789395
0.00795117
0.00769456
0.0070614
0.00603772
0.00488884
0.00391897
0.00208654
0.00106811
0.0013997
0.00160363
0.00173049
0.00172296
0.00134726
0.00103262
0.000802688
0.000637648
0.000518294
0.000430637
0.000365361
0.000316493
0.000280909
0.000262152
0.000265449
0.000780318
0.000408852
0.00835913
0.0222355
0.0059276
0.00470762
0.00474727
0.00501736
0.00547468
0.00616918
0.00689382
0.00746445
0.00783531
0.00795517
0.0077497
0.00714682
0.00628782
0.00543628
0.00463286
0.00350061
0.00276932
0.00250713
0.00237431
0.0023384
0.00228987
0.00215217
0.00170967
0.00143659
0.00126418
0.00114399
0.00104704
0.000954903
0.00087135
0.000787217
0.000694284
0.000530243
0.000422785
0.0011325
0.000542378
0.0110415
0.0339557
0.00842443
0.00475052
0.00448372
0.00470901
0.00530057
0.00635627
0.00718608
0.00774066
0.00809637
0.00819862
0.00790171
0.00718359
0.00621684
0.00530984
0.00458023
0.00397889
0.00379494
0.00347981
0.00325284
0.00307101
0.00285962
0.0025907
0.00230305
0.00210694
0.00198686
0.00189215
0.00179009
0.00166134
0.00149206
0.00129926
0.00109398
0.000865744
0.000664804
0.000922204
0.00106383
0.000969419
0.00108637
0.00128348
0.0143258
0.0466865
0.0149505
0.00592407
0.00474335
0.00478423
0.00570883
0.00726832
0.00803301
0.00847545
0.00873989
0.008749
0.00832152
0.00737984
0.00612539
0.0049668
0.0041842
0.00384212
0.00381444
0.00382346
0.00373228
0.00350922
0.00318976
0.00283538
0.00254827
0.00239572
0.00232205
0.00226342
0.00218529
0.00206538
0.00187855
0.00164901
0.00140044
0.00114687
0.000935658
0.000900741
0.00103005
0.00105444
0.00165139
0.00138073
0.0179758
0.0550454
0.0270773
0.0123621
0.00831024
0.00741424
0.00850717
0.00921136
0.0094873
0.00964691
0.00973107
0.00958493
0.00894839
0.00771032
0.00611094
0.00469948
0.00388748
0.00373645
0.00389876
0.00398319
0.00385408
0.00355094
0.00317158
0.00281248
0.00256792
0.00246895
0.00245202
0.0024573
0.00245517
0.00242472
0.00233623
0.00214742
0.00191083
0.0016591
0.00145734
0.00136469
0.00145103
0.00168156
0.00223397
0.00194889
0.0189406
0.056841
0.0383012
0.0271726
0.0197443
0.0158838
0.0137276
0.0122902
0.0115377
0.0112136
0.0110112
0.0106113
0.00964767
0.00799568
0.00597486
0.00439295
0.00367778
0.00365575
0.00378024
0.00375061
0.00351729
0.00317057
0.00282061
0.00255101
0.00240843
0.002384
0.00243154
0.00251762
0.00263035
0.0027672
0.0029255
0.0030671
0.00310944
0.00313906
0.00329221
0.00386917
0.00511943
0.00681564
0.0128313
0.0046771
0.0182042
0.0264659
0.024362
0.0217105
0.0188865
0.0164648
0.0146549
0.0135918
0.0130883
0.0127697
0.012359
0.0115978
0.0100725
0.00776983
0.00515967
0.00385802
0.00340297
0.00330995
0.0032534
0.00309174
0.00282383
0.00252815
0.00228296
0.00213462
0.00208919
0.00212343
0.0022097
0.00233312
0.00249005
0.00268166
0.00290931
0.00317118
0.00348976
0.00390095
0.00444784
0.00509756
0.00569691
0.00606934
0.0062486
0.00408132
0.00718457
0.0110944
0.0135428
0.0147741
0.0154388
0.0157101
0.01538
0.0144548
0.0132155
0.0115877
0.00880985
0.0058587
0.0040362
0.00322556
0.00288149
0.0027004
0.00252808
0.00231825
0.00209098
0.00188817
0.00175207
0.00169312
0.00169785
0.00174767
0.00182976
0.00193922
0.00207747
0.00225112
0.00247287
0.00276576
0.00313122
0.003567
0.0040509
0.00449041
0.00471259
0.00457285
0.00410685
0.00264226
0.00805084
0.019471
0.0216136
0.0215039
0.0207311
0.0184792
0.0153402
0.0120162
0.0088341
0.00623617
0.0043512
0.00326392
0.00271612
0.00241219
0.0022104
0.00203234
0.0018476
0.00166468
0.00150903
0.00139876
0.00133807
0.00132613
0.00135489
0.00141867
0.00151586
0.00164786
0.00181796
0.00203047
0.0022959
0.00262432
0.00302436
0.00349682
0.00401536
0.00451213
0.00481677
0.00510141
0.00428744
0.00271139
0.00890517
0.00935062
0.00976453
0.0120866
0.0107986
0.00848006
0.00603557
0.00437043
0.0034824
0.00273187
0.00214608
0.00173657
0.0014236
0.00120708
0.00106712
0.00097031
0.000895794
0.000834058
0.000784744
0.000752316
0.000740395
0.000749335
0.000776183
0.00081651
0.000868924
0.000933147
0.00100987
0.00110075
0.00120883
0.00133955
0.00149646
0.00168143
0.00189883
0.0021536
0.00245036
0.00283122
0.0030066
0.00288473
0.0024957
0.00213481
)
;

boundaryField
{
    floor
    {
        type            kqRWallFunction;
        value           nonuniform List<scalar> 
36
(
0.00187347
0.000457631
0.000628889
0.000808357
0.000878872
0.000851591
0.000745744
0.000636822
0.000546647
0.000474099
0.000415276
0.000367096
0.000327374
0.000294054
0.000265261
0.000239321
0.000214617
0.000200573
0.000169416
0.000169416
0.000292749
0.000408852
0.000542378
0.000969419
0.00108637
0.00128348
0.00187347
0.00326436
0.00224685
0.00149568
0.000457631
0.00149568
0.000450298
0.00208654
0.00106811
0.00276932
)
;
    }
    ceiling
    {
        type            kqRWallFunction;
        value           nonuniform List<scalar> 
43
(
0.00890517
0.00935062
0.00976453
0.0120866
0.0107986
0.00848006
0.00603557
0.00437043
0.0034824
0.00273187
0.00214608
0.00173657
0.0014236
0.00120708
0.00106712
0.00097031
0.000895794
0.000834058
0.000784744
0.000752316
0.000740395
0.000749335
0.000776183
0.00081651
0.000868924
0.000933147
0.00100987
0.00110075
0.00120883
0.00133955
0.00149646
0.00168143
0.00189883
0.0021536
0.00245036
0.00283122
0.0030066
0.00288473
0.0024957
0.00213481
0.0182042
0.0264659
0.00805084
)
;
    }
    sWall
    {
        type            kqRWallFunction;
        value           uniform 0.00890517;
    }
    nWall
    {
        type            kqRWallFunction;
        value           nonuniform List<scalar> 6(0.00128348 0.00138073 0.00194889 0.00264226 0.00271139 0.00213481);
    }
    sideWalls
    {
        type            empty;
    }
    glass1
    {
        type            kqRWallFunction;
        value           nonuniform List<scalar> 9(0.00226792 0.00412322 0.00609536 0.00835913 0.0110415 0.0143258 0.0179758 0.0189406 0.0182042);
    }
    glass2
    {
        type            kqRWallFunction;
        value           nonuniform List<scalar> 2(0.0046771 0.00408132);
    }
    sun
    {
        type            kqRWallFunction;
        value           nonuniform List<scalar> 
14
(
0.00226792
0.00268622
0.00280903
0.00308425
0.00334911
0.00360993
0.00388065
0.0041655
0.00440585
0.00456025
0.00457775
0.00441293
0.00402209
0.00325454
)
;
    }
    Table_master
    {
        type            kqRWallFunction;
        value           nonuniform List<scalar> 9(0.00134726 0.00103262 0.000802688 0.000637648 0.000518294 0.000430637 0.000365361 0.000316493 0.000280909);
    }
    Table_slave
    {
        type            kqRWallFunction;
        value           nonuniform List<scalar> 9(0.00170967 0.00143659 0.00126418 0.00114399 0.00104704 0.000954903 0.00087135 0.000787217 0.000694284);
    }
    inlet
    {
        type            turbulentIntensityKineticEnergyInlet;
        intensity       0.05;
        value           uniform 0.000937501;
    }
    outlet
    {
        type            zeroGradient;
    }
}


// ************************************************************************* //
