/*--------------------------------*- C++ -*----------------------------------*\
  =========                 |
  \\      /  F ield         | OpenFOAM: The Open Source CFD Toolbox
   \\    /   O peration     | Website:  https://openfoam.org
    \\  /    A nd           | Version:  6
     \\/     M anipulation  |
\*---------------------------------------------------------------------------*/
FoamFile
{
    version     2.0;
    format      ascii;
    class       surfaceScalarField;
    location    "1150";
    object      phi;
}
// * * * * * * * * * * * * * * * * * * * * * * * * * * * * * * * * * * * * * //

dimensions      [1 0 -1 0 0 0 0];

internalField   nonuniform List<scalar> 
850
(
-0.00305334
0.0031138
-0.00414634
0.001093
-0.00501559
0.000869245
-0.0057045
0.000688917
-0.00617658
0.00047208
-0.00639777
0.000221187
-0.00632844
-6.93297e-05
-0.00592444
-0.000404
-0.00517397
-0.000750467
-0.00412859
-0.00104539
-0.00290011
-0.00122848
-0.0016412
-0.00125891
-0.000538676
-0.00110253
0.0001361
-0.000674777
0.000138451
-0.000922289
0.000925945
-0.000689705
-0.000232584
-6.0184e-05
-0.000629521
0.000543543
-0.000603727
0.001003
-0.00045946
0.00125968
-0.000256679
0.0013678
-0.00010812
0.00142059
-5.27893e-05
0.00145092
-3.03299e-05
0.00146593
-1.50095e-05
0.00146947
-3.5441e-06
0.00146243
7.04143e-06
0.00143912
2.33157e-05
0.0013805
5.8617e-05
0.00125444
0.000126064
0.00105063
0.000203802
0.000793696
0.000256938
0.000798535
-0.00220764
0.00548484
-0.00329546
0.00218081
-0.00420878
0.00178256
-0.0049066
0.00138674
-0.00538811
0.000953595
-0.00563101
0.000464088
-0.00559489
-0.00010545
-0.00524054
-0.000758349
-0.00456684
-0.00142417
-0.0036426
-0.00196963
-0.00258777
-0.0022833
-0.00154115
-0.00230552
-0.000628305
-0.00201537
9.32926e-05
-0.00139637
0.000873145
-0.000641401
0.00114883
-0.0002719
0.000956901
0.000196287
0.000969589
4.15959e-05
0.00089535
0.000421805
-0.000612793
0.000786696
-0.000994412
0.00109988
-0.000916908
0.00135101
-0.000710591
0.00140756
-0.000313232
0.00141569
-0.000116247
0.0014264
-6.34966e-05
0.00143538
-3.93177e-05
0.00144064
-2.02668e-05
0.00144282
-5.71844e-06
0.0014424
7.45715e-06
0.00143691
2.88096e-05
0.00140042
9.51076e-05
0.00124745
0.00027903
0.000978824
0.000472427
0.00064474
0.000591022
0.00145565
-0.00156244
0.00729769
-0.00251054
0.00312891
-0.00334322
0.00261525
-0.00396581
0.00200933
-0.00441338
0.00140116
-0.00466187
0.000712576
-0.00465613
-0.00011119
-0.0043347
-0.00107978
-0.003713
-0.00204586
-0.00288842
-0.00279422
-0.0019862
-0.00318552
-0.00112221
-0.00316951
-0.000373017
-0.00276457
0.000240989
-0.00201038
0.000752441
-0.00115285
0.000899679
-0.000419138
0.000707667
0.0003883
0.00168852
0.00143683
-0.000527639
0.00163209
-0.000808055
0.00157434
-0.000936665
0.00160768
-0.000950244
0.0018115
-0.000914416
0.00149842
0.00138233
0.00131899
0.00127982
0.00125971
0.00125415
0.00126176
0.00129072
0.00138598
0.00115898
0.000506036
0.000869936
0.000761468
0.000498828
0.00096213
0.00197305
-0.00109552
0.00871786
-0.00185231
0.0038857
-0.00243662
0.00319956
-0.00288267
0.00245538
-0.00322776
0.00174625
-0.00344057
0.000925389
-0.00344191
-0.000109853
-0.00312334
-0.00139835
-0.00254738
-0.00262183
-0.00184558
-0.00349602
-0.00112987
-0.00390123
-0.000480132
-0.00381925
6.63255e-05
-0.00331103
0.000526893
-0.00247095
0.000902894
-0.00152885
0.00111982
-0.000636063
0.00130379
0.000204327
0.00225722
0.000735086
0.00216677
0.000102391
0.00199373
-0.000354598
0.00190756
-0.000721884
0.00179655
-0.000825653
0.00166405
-0.000817751
0.00143246
-0.00068282
0.00175632
-0.000324018
0.0019342
-0.00017803
0.00206542
-0.00013137
0.00216655
-0.000101289
0.00222719
-6.07906e-05
0.00222506
1.97884e-06
0.00213253
9.23696e-05
0.00191332
0.000219061
0.00150729
0.00040587
0.00126992
0.000743415
0.000902472
0.00112891
0.000384028
0.00148057
0.00238072
-0.000756052
0.00986162
-0.00132699
0.00445664
-0.00150949
0.00338206
-0.00168799
0.00263387
-0.00185286
0.00191112
-0.00196179
0.00103431
-0.00191325
-0.000158392
-0.00155603
-0.00175557
-0.001055
-0.00312285
-0.000537119
-0.0040139
-7.26383e-05
-0.00436571
0.000305998
-0.00419788
0.000597153
-0.00360218
0.000849983
-0.00272378
0.0010692
-0.00174807
0.0012764
-0.000843264
0.00158677
-0.000106043
0.00202995
0.000291912
0.00206347
6.88629e-05
0.00199582
-0.000286944
0.00181102
-0.000537087
0.00162283
-0.000637465
0.0014454
-0.000640315
0.00131642
-0.000553842
0.00137523
-0.000382823
0.00146351
-0.000266313
0.00154827
-0.000216131
0.0016301
-0.000183117
0.0017006
-0.00013129
0.00174
-3.74231e-05
0.00172427
0.000108102
0.00163819
0.000305136
0.00148608
0.00055798
0.00133009
0.000899403
0.00115113
0.00130787
0.000803999
0.00182771
0.00101955
0.00216516
-0.00109554
0.00213621
-0.00179366
0.000717739
-0.00172089
-0.000638739
0.0109411
-0.00101427
0.00483217
-0.000633214
0.00300101
-0.000448314
0.00244897
-0.000383523
0.00184632
-0.000302987
0.000953779
-5.09902e-05
-0.000410388
0.000335493
-0.00214205
0.000693151
-0.00348051
0.000952891
-0.00427364
0.00109582
-0.00450864
0.0011461
-0.00424816
0.00113997
-0.00359605
0.00111672
-0.00270052
0.00110111
-0.00173246
0.00113303
-0.000875185
0.00126977
-0.000242783
0.00148417
7.75104e-05
0.00153516
1.787e-05
0.0014369
-0.000188683
0.00126223
-0.000362411
0.00108225
-0.000457486
0.000924641
-0.000482709
0.000819421
-0.000448623
0.000808662
-0.000372063
0.000858204
-0.000315856
0.000934618
-0.000292545
0.00102564
-0.000274138
0.00112476
-0.000230412
0.00122208
-0.00013474
0.00129527
3.49112e-05
0.00133244
0.000267959
0.00134778
0.000542643
0.00138182
0.000865364
0.00148241
0.00120729
0.00168592
0.0016242
0.00203669
0.00181439
0.00233686
0.00183604
0.00182989
0.00122471
0.000174432
-0.000763742
0.0121922
-0.000621255
0.00468968
0.000492643
0.00188711
0.000961144
0.00198047
0.00121869
0.00158878
0.00160046
0.000572013
0.00210397
-0.000913906
0.00244108
-0.00247916
0.00257486
-0.00361429
0.00250719
-0.00420596
0.00227382
-0.00427528
0.00193676
-0.0039111
0.00155976
-0.00321905
0.00120094
-0.0023417
0.000897044
-0.00142857
0.000705239
-0.000683379
0.000653334
-0.000190878
0.000704201
2.66437e-05
0.000712058
1.00126e-05
0.000635587
-0.000112211
0.000508037
-0.000234862
0.000367484
-0.000316932
0.000241359
-0.000356584
0.000155144
-0.000362408
0.000132255
-0.000349174
0.000161414
-0.000345014
0.000221192
-0.000352324
0.000301775
-0.00035472
0.000404144
-0.000332781
0.000533279
-0.000263875
0.000686354
-0.000118164
0.000844489
0.000109824
0.00100658
0.000380554
0.00120845
0.000663492
0.00148323
0.000932509
0.00188379
0.00122363
0.00241735
0.00128083
0.00318508
0.00106831
0.00336178
0.00104802
0.00360503
0.0027364
0.00999908
0.00339228
0.0040338
0.00344997
0.00182941
0.00353582
0.00189463
0.00374731
0.00137728
0.00422348
9.58413e-05
0.0046947
-0.00138512
0.00478965
-0.0025741
0.00451518
-0.00333982
0.00396182
-0.0036526
0.00323044
-0.0035439
0.0024253
-0.00310596
0.00162835
-0.0024221
0.000922347
-0.0016357
0.000347442
-0.000853665
-2.71494e-06
-0.000333222
-0.000141227
-5.2366e-05
-0.000155783
4.11991e-05
-0.000163728
1.79577e-05
-0.000215949
-5.999e-05
-0.000306849
-0.000143962
-0.000413197
-0.000210584
-0.000512592
-0.000257189
-0.000586872
-0.000288128
-0.000624814
-0.000311232
-0.000633994
-0.000335834
-0.000626163
-0.000360155
-0.000605646
-0.000375238
-0.000567465
-0.000370962
-0.000495372
-0.000335968
-0.000358084
-0.000255453
-0.00014786
-0.0001004
0.000103163
0.000129532
0.000388041
0.000378614
0.000706761
0.000613789
0.00108934
0.000841055
0.00150686
0.000863308
0.00189866
0.000676508
0.001206
0.00174068
0.00509743
0.010598
0.0146276
0.0125619
0.00389516
0.0112301
0.00322637
0.0103421
0.00226534
0.00953532
0.000902578
0.00853276
-0.000382556
0.00735363
-0.00139498
0.0060801
-0.00206629
0.00476093
-0.00233343
0.00342943
-0.0022124
0.0021642
-0.00184073
0.00100921
-0.00126711
5.60009e-05
-0.000682495
-0.000566644
-0.00023102
-0.000860369
-3.94972e-05
-0.000957445
4.47108e-05
-0.000976905
6.06585e-05
-0.000992146
3.31986e-05
-0.00103549
-1.66469e-05
-0.00110798
-7.14685e-05
-0.00119691
-0.000121651
-0.00128862
-0.000165484
-0.0013742
-0.000202545
-0.00145145
-0.000233988
-0.00152709
-0.000260189
-0.00161038
-0.000276864
-0.00170987
-0.000275751
-0.00183518
-0.000245649
-0.00199917
-0.000171981
-0.00221722
-3.74054e-05
-0.00248379
0.000166173
-0.00280771
0.00045345
-0.00327139
0.000842295
-0.00398832
0.00133072
-0.00502972
0.00188245
-0.00651691
0.0023505
-0.0082554
0.002415
-0.00777183
0.00125711
-0.00235739
0.00895063
0.00560294
0.0074721
0.00470489
0.00708022
0.00265722
0.00672941
0.00125338
0.00611933
0.000227531
0.00524667
-0.000522314
0.0041778
-0.000997415
0.00298198
-0.00113762
0.00169018
-0.000920595
0.000429212
-0.000579768
-0.000610676
-0.000227218
-0.00127188
-2.12873e-05
-0.00156422
6.13113e-05
-0.00167856
7.48444e-05
-0.00170818
7.43378e-05
-0.00171363
6.61044e-05
-0.00172837
4.79371e-05
-0.00176689
2.18776e-05
-0.00183055
-7.8107e-06
-0.0019118
-4.03978e-05
-0.00200303
-7.42606e-05
-0.00210221
-0.000103364
-0.00221075
-0.000125448
-0.00233198
-0.000138958
-0.00246798
-0.000140867
-0.00261755
-0.000126174
-0.00277529
-8.79131e-05
-0.00292881
-1.84643e-05
-0.00306254
9.63322e-05
-0.00317491
0.000278534
-0.00327583
0.000554379
-0.00337728
0.000943739
-0.00348599
0.00143943
-0.00356938
0.00196584
-0.00356766
0.00234878
-0.00330956
0.0021569
-0.00194966
-0.000102795
-0.00422372
-0.000826105
0.00648237
0.000741792
0.003137
0.00140711
0.0019919
0.0016456
0.00101489
0.00158138
0.000291752
0.00121007
-0.000151003
0.000527543
-0.000314892
-0.000365883
-0.000244196
-0.00124279
-4.36841e-05
-0.00188771
6.5149e-05
-0.00222812
0.000113191
-0.0023588
0.000109392
-0.00238145
8.39618e-05
-0.00237079
6.41861e-05
-0.00234929
5.28386e-05
-0.00232827
4.50842e-05
-0.00231688
3.65427e-05
-0.00232049
2.54929e-05
-0.00233964
1.13392e-05
-0.00237315
-6.88917e-06
-0.00242151
-2.59057e-05
-0.00248282
-4.20474e-05
-0.00255504
-5.32255e-05
-0.00263554
-5.84665e-05
-0.00272009
-5.63109e-05
-0.00280209
-4.41746e-05
-0.00287205
-1.79501e-05
-0.00291745
2.69313e-05
-0.00291761
9.64892e-05
-0.00284724
0.000208169
-0.00267182
0.000378959
-0.00235992
0.000631836
-0.00190368
0.000983194
-0.00128909
0.00135126
-0.000299399
0.00135908
0.00114779
0.000709714
0.00164259
-0.000597595
-0.00248945
-0.012048
-0.0155767
-0.00905383
-0.00588942
-0.00387526
-0.00284177
-0.002535
-0.00267401
-0.00297898
-0.00321468
-0.0032507
-0.00317826
-0.00305793
-0.00294143
-0.00285034
-0.00277902
-0.00271901
-0.00266672
-0.00262292
-0.00259013
-0.00257151
-0.00257115
-0.00258988
-0.00262486
-0.00267115
-0.00272283
-0.00277252
-0.00281024
-0.00282193
-0.00278894
-0.00268659
-0.0024728
-0.00208847
-0.00145152
-0.000463517
0.000892166
0.00225538
0.00296914
0.00237571
)
;

boundaryField
{
    floor
    {
        type            calculated;
        value           nonuniform List<scalar> 
36
(
0
0
0
0
0
0
0
0
0
0
0
0
0
0
0
0
0
0
0
-4.83913e-06
-1.23786e-05
-1.857e-05
-2.36398e-05
-2.11164e-05
-1.96193e-05
-1.84538e-05
-2.35093e-06
-3.78385e-06
-4.35921e-06
-5.04452e-06
-3.65655e-06
-7.64356e-06
-1.10002e-05
-1.12612e-05
-1.38376e-05
-1.19383e-05
)
;
    }
    ceiling
    {
        type            calculated;
        value           nonuniform List<scalar> 
43
(
-4.18383e-05
-4.11739e-05
-4.04745e-05
-2.74091e-05
-2.22634e-05
-1.85963e-05
-1.50181e-05
-1.19941e-05
-9.92087e-06
-8.49529e-06
-7.66476e-06
-7.28624e-06
-7.13892e-06
-7.11134e-06
-7.12253e-06
-7.14035e-06
-7.16747e-06
-7.20917e-06
-7.2582e-06
-7.28969e-06
-7.28885e-06
-7.25055e-06
-7.1709e-06
-7.06438e-06
-6.93526e-06
-6.78515e-06
-6.62481e-06
-6.45203e-06
-6.26332e-06
-6.06371e-06
-5.85176e-06
-5.62437e-06
-5.37646e-06
-5.10633e-06
-4.81204e-06
-4.42465e-06
-4.13381e-06
-4.04029e-06
-4.17285e-06
-3.59949e-06
6.94247e-06
4.18039e-06
-5.3316e-05
)
;
    }
    sWall
    {
        type            calculated;
        value           uniform -0.000241389;
    }
    nWall
    {
        type            calculated;
        value           nonuniform List<scalar> 6(-5.43175e-05 -6.54343e-05 -6.88129e-05 -8.33257e-05 -9.16813e-05 -0.000110137);
    }
    sideWalls
    {
        type            empty;
        value           nonuniform 0();
    }
    glass1
    {
        type            calculated;
        value           nonuniform List<scalar> 9(-6.04551e-05 -0.000163397 -0.000250417 -0.000324642 -0.000387713 -0.000440774 -0.000487275 -0.000543326 -0.000605844);
    }
    glass2
    {
        type            calculated;
        value           nonuniform List<scalar> 2(-0.00028641 -0.000317009);
    }
    sun
    {
        type            calculated;
        value           uniform 0;
    }
    Table_master
    {
        type            calculated;
        value           nonuniform List<scalar> 9(-1.5364e-07 -1.53789e-07 -1.53839e-07 -1.53869e-07 -1.5389e-07 -1.53902e-07 -1.53906e-07 -1.539e-07 -1.5387e-07);
    }
    Table_slave
    {
        type            calculated;
        value           nonuniform List<scalar> 9(1.53531e-07 1.53516e-07 1.53469e-07 1.53431e-07 1.53408e-07 1.53409e-07 1.53414e-07 1.53451e-07 1.53534e-07);
    }
    inlet
    {
        type            calculated;
        value           uniform -0.0106584;
    }
    outlet
    {
        type            calculated;
        value           nonuniform List<scalar> 2(0.0123313 0.0035698);
    }
}


// ************************************************************************* //
