/*--------------------------------*- C++ -*----------------------------------*\
  =========                 |
  \\      /  F ield         | OpenFOAM: The Open Source CFD Toolbox
   \\    /   O peration     | Website:  https://openfoam.org
    \\  /    A nd           | Version:  6
     \\/     M anipulation  |
\*---------------------------------------------------------------------------*/
FoamFile
{
    version     2.0;
    format      ascii;
    class       volScalarField;
    location    "41299.9999994267928";
    object      k;
}
// * * * * * * * * * * * * * * * * * * * * * * * * * * * * * * * * * * * * * //

dimensions      [0 2 -2 0 0 0 0];

internalField   nonuniform List<scalar> 
778
(
0.00158589
0.00180111
0.00178806
0.00194669
0.00209801
0.00224036
0.00237709
0.00251274
0.00265309
0.0028064
0.00295656
0.00310275
0.00325014
0.00341242
0.00358596
0.000793002
0.00162449
0.00165083
0.00157182
0.00144411
0.00128205
0.00113016
0.000998629
0.00088697
0.000792461
0.000712741
0.000644745
0.000585779
0.000533298
0.00048459
0.000436155
0.000397895
0.000326052
0.00340686
0.00643326
0.00268763
0.00274631
0.00288807
0.00305471
0.00323512
0.00343093
0.00364417
0.00387447
0.00412643
0.00437996
0.0045954
0.00470028
0.0045943
0.00429789
0.00390685
0.0035796
0.00253594
0.00281152
0.00295319
0.00289517
0.00266225
0.00226358
0.0019047
0.00160876
0.00136926
0.00117558
0.00101685
0.000885093
0.000773858
0.000681059
0.000615047
0.000574497
0.000864272
0.000523926
0.00549052
0.0127806
0.00347805
0.00321239
0.00329777
0.00345566
0.00363708
0.00384128
0.00407161
0.00432816
0.0046361
0.00501116
0.00545084
0.00595972
0.00653006
0.0068582
0.00627613
0.00538485
0.00403759
0.00416894
0.00417156
0.00397352
0.0035753
0.00266305
0.00201337
0.00157436
0.00126855
0.00104879
0.000886629
0.000764419
0.000671672
0.000603509
0.000551353
0.000548562
0.00116595
0.0006779
0.00797305
0.0217572
0.00449111
0.00339101
0.00334183
0.00343842
0.0035498
0.00366929
0.00380952
0.0039918
0.00425955
0.00464871
0.00517106
0.00582451
0.00655349
0.00713299
0.00722681
0.00724243
0.00534285
0.00555013
0.00537618
0.00512532
0.00478644
0.00434734
0.00345481
0.00285768
0.00243445
0.0021085
0.00184925
0.00163094
0.00143767
0.00125775
0.00107688
0.000799926
0.000659246
0.00142295
0.000821348
0.0108755
0.0336326
0.00621235
0.0034252
0.00315855
0.00316724
0.00318986
0.00321015
0.00325242
0.00336141
0.00359502
0.00398933
0.0045532
0.00527594
0.00608568
0.00681601
0.00728197
0.00764321
0.00751684
0.00665384
0.00607323
0.00557901
0.00509892
0.00462896
0.00412235
0.00366463
0.00327393
0.00293625
0.00263009
0.00234673
0.00207826
0.00181756
0.00155403
0.00122084
0.000929014
0.00119019
0.00121569
0.00116865
0.00206577
0.00187434
0.0141736
0.0475961
0.00928265
0.00349007
0.00290872
0.00282293
0.00276457
0.0026997
0.00266438
0.00273474
0.002981
0.00341429
0.00402307
0.00479645
0.00565168
0.0064587
0.00706651
0.00740553
0.0073225
0.00678919
0.00621475
0.00563704
0.00507417
0.00455571
0.00409087
0.00369515
0.00336257
0.00307311
0.00280617
0.00255087
0.00229824
0.00204138
0.001773
0.00147049
0.00117687
0.0011114
0.00111001
0.00173127
0.00517039
0.00267088
0.0179902
0.0606037
0.0143574
0.00381922
0.00271525
0.00252946
0.00241186
0.00229408
0.0022211
0.0023117
0.00263052
0.00313936
0.00380139
0.0046294
0.00552571
0.0063634
0.00699769
0.00732555
0.0072527
0.00681702
0.00621481
0.0055545
0.00491166
0.00434255
0.00387227
0.00350028
0.00320666
0.00296174
0.00274131
0.00252894
0.00231308
0.00208651
0.00184445
0.00158227
0.00132619
0.00115756
0.00109039
0.0015778
0.00639874
0.00373287
0.0216389
0.0704805
0.0214328
0.00510066
0.00274243
0.00237167
0.00221002
0.00208182
0.00202622
0.00221957
0.00265009
0.00323108
0.00393653
0.00477256
0.00569583
0.0065697
0.00721995
0.00751092
0.00738214
0.00689484
0.00619735
0.0054264
0.00469117
0.00406426
0.00357437
0.00321257
0.00294793
0.00274137
0.00256468
0.0023962
0.00222211
0.00203493
0.00183139
0.00161245
0.00139631
0.00122511
0.00115043
0.00217279
0.0147929
0.00652816
0.0228317
0.069496
0.0325303
0.0110503
0.00406398
0.00258636
0.00223503
0.00210268
0.00218967
0.00251249
0.00300084
0.00360221
0.00433173
0.00521046
0.00618165
0.00708345
0.00771312
0.00791957
0.00766186
0.00702353
0.0061639
0.00524766
0.00440709
0.00372231
0.00321676
0.00286922
0.00263614
0.0024698
0.00233715
0.00221218
0.00207988
0.00193314
0.0017698
0.00159249
0.00141472
0.00127458
0.00131581
0.00422777
0.0305138
0.00821444
0.0219174
0.0516402
0.0336418
0.0174265
0.00858009
0.00475417
0.00325852
0.00272878
0.00285222
0.00321061
0.00367245
0.00424608
0.00499398
0.00593568
0.00697051
0.00788351
0.00843772
0.00848006
0.00800004
0.00712074
0.00603904
0.00495272
0.00401109
0.00329091
0.00279835
0.00248928
0.00230306
0.00218531
0.00209754
0.00201283
0.00191762
0.00180632
0.00167808
0.00153638
0.00139266
0.00129103
0.00159656
0.00882248
0.027037
0.0086573
0.0192336
0.0394428
0.0302384
0.0195616
0.0121761
0.00793299
0.00571262
0.00466587
0.00435967
0.00439798
0.00465104
0.00514334
0.00593201
0.00697702
0.00808453
0.0089608
0.00934013
0.00909296
0.00826882
0.00705593
0.00570792
0.00445801
0.00346165
0.00276932
0.00234906
0.00211574
0.00199124
0.00192446
0.00187508
0.0018216
0.00175411
0.00166911
0.00156731
0.00145436
0.0013452
0.00131483
0.00195413
0.00837386
0.0267264
0.00886319
0.0159507
0.0315914
0.0266527
0.0195372
0.0139726
0.01028
0.00802308
0.00674661
0.00604517
0.00572782
0.00577965
0.0062702
0.00720416
0.00841237
0.00956301
0.0102816
0.0103102
0.00959121
0.0082806
0.00665821
0.00505051
0.00371842
0.00279297
0.00223435
0.00195479
0.0018152
0.00174672
0.00171353
0.00168647
0.00165112
0.00160041
0.00153197
0.00144781
0.00135964
0.00129834
0.00146449
0.00286582
0.00907349
0.024063
0.00913065
0.0132675
0.0256762
0.0233543
0.0186904
0.0145825
0.011586
0.00954069
0.00820673
0.00729728
0.00683723
0.00695399
0.00771331
0.00897087
0.0103588
0.0114043
0.0117085
0.0111097
0.00969265
0.00777969
0.00575254
0.00402549
0.00283346
0.00219316
0.00186087
0.00169713
0.00161658
0.0015771
0.0015564
0.00153575
0.00150556
0.00146075
0.00140031
0.00133042
0.00127653
0.00135461
0.00209502
0.00451711
0.0102191
0.020488
0.00829528
0.0133481
0.0224252
0.0220626
0.0177624
0.0143933
0.0118938
0.0100829
0.00876808
0.00791701
0.00777151
0.00846693
0.00985895
0.0115164
0.0128684
0.0134085
0.0128543
0.011285
0.00897983
0.00651265
0.00430303
0.00295902
0.00222106
0.00185077
0.00166337
0.00156478
0.00150978
0.00147681
0.00145357
0.00142798
0.00139379
0.0013481
0.00129243
0.00123979
0.00124324
0.00151649
0.00269694
0.00562391
0.0106713
0.0164512
0.00758809
0.0108745
0.011766
0.012925
0.0125541
0.0113765
0.0100773
0.00894979
0.00820576
0.00830252
0.00941058
0.0112809
0.0133477
0.0149453
0.0155374
0.0148585
0.0129002
0.0101611
0.00701822
0.00463544
0.00313361
0.00234494
0.00195488
0.00175397
0.00163607
0.00155743
0.00150031
0.00145639
0.0014201
0.00138373
0.00134404
0.00130215
0.0012645
0.00125063
0.00132231
0.00167376
0.00281054
0.00547927
0.0101092
0.0172142
0.00762844
0.00354225
0.00482381
0.00600012
0.00661046
0.00729209
0.00880142
0.0113093
0.0141289
0.0165401
0.0179807
0.0180894
0.0167839
0.0142661
0.0106381
0.00733358
0.00483503
0.00333067
0.00256101
0.00219661
0.00200757
0.00188661
0.00179234
0.00171124
0.00164041
0.00158096
0.00153527
0.00150443
0.00149056
0.00149962
0.00153748
0.00161509
0.00177301
0.00213888
0.0030376
0.00516065
0.00996657
0.0158721
0.00886172
0.0044458
0.0062982
0.00812258
0.0110402
0.0147124
0.0181649
0.0203902
0.0214455
0.0213737
0.0201656
0.0176398
0.0141769
0.0105177
0.00721884
0.004887
0.00354049
0.00288931
0.00259117
0.0024385
0.00234077
0.00226451
0.00219772
0.00213766
0.00208723
0.00205359
0.00204644
0.00207635
0.00215051
0.00227231
0.00244012
0.00265577
0.00294515
0.003395
0.00421921
0.00597607
0.0114432
0.015287
0.00928509
0.0150688
0.0244415
0.0181049
0.0144115
0.0170371
0.0207307
0.0228529
0.0235432
0.0230774
0.0217153
0.0197027
0.0170697
0.0139079
0.0105914
0.00762532
0.00544581
0.00419839
0.00360518
0.00333905
0.00321347
0.00315195
0.00312124
0.00310165
0.0030803
0.00305312
0.00302736
0.00301978
0.00304972
0.00313127
0.00327386
0.00348161
0.00375921
0.00412116
0.00460998
0.0053257
0.00647801
0.00859181
0.0146152
0.0178747
0.00963187
0.0138064
0.0170481
0.0178733
0.0207838
0.0217297
0.0221518
0.0211556
0.0193417
0.0172214
0.0150468
0.0129198
0.0108879
0.00900059
0.00735322
0.0060465
0.00509866
0.00449619
0.00414575
0.00396419
0.00390313
0.00393118
0.00402026
0.00414147
0.00426767
0.00437937
0.00447069
0.00455175
0.00464492
0.00477732
0.00497248
0.00525086
0.00563642
0.0061655
0.00690154
0.00794603
0.00942046
0.0115058
0.0156489
0.0216276
0.00968066
0.0121405
0.00891303
0.00882795
0.00935311
0.00980181
0.0092385
0.00818438
0.00703804
0.00598128
0.0050593
0.00426313
0.00358188
0.00302437
0.00261338
0.00236406
0.00225677
0.00222856
0.00225096
0.00230696
0.0023845
0.00247388
0.0025675
0.00266018
0.00274955
0.00283611
0.00292308
0.00301569
0.00312004
0.00324217
0.00338834
0.00356764
0.00379622
0.00410202
0.00452736
0.00512304
0.00593209
0.00697317
0.00823148
0.00961515
0.00834161
)
;

boundaryField
{
    floor
    {
        type            kqRWallFunction;
        value           nonuniform List<scalar> 
36
(
0.00358596
0.000793002
0.00162449
0.00165083
0.00157182
0.00144411
0.00128205
0.00113016
0.000998629
0.00088697
0.000792461
0.000712741
0.000644745
0.000585779
0.000533298
0.00048459
0.000436155
0.000397895
0.000326052
0.000326052
0.000523926
0.0006779
0.000821348
0.00116865
0.00206577
0.00187434
0.00358596
0.00429789
0.00390685
0.0035796
0.000793002
0.0035796
0.00253594
0.00538485
0.00403759
0.00534285
)
;
    }
    ceiling
    {
        type            kqRWallFunction;
        value           nonuniform List<scalar> 
43
(
0.0121405
0.00891303
0.00882795
0.00935311
0.00980181
0.0092385
0.00818438
0.00703804
0.00598128
0.0050593
0.00426313
0.00358188
0.00302437
0.00261338
0.00236406
0.00225677
0.00222856
0.00225096
0.00230696
0.0023845
0.00247388
0.0025675
0.00266018
0.00274955
0.00283611
0.00292308
0.00301569
0.00312004
0.00324217
0.00338834
0.00356764
0.00379622
0.00410202
0.00452736
0.00512304
0.00593209
0.00697317
0.00823148
0.00961515
0.00834161
0.0108745
0.011766
0.0044458
)
;
    }
    sWall
    {
        type            kqRWallFunction;
        value           nonuniform List<scalar> 9(0.0219174 0.0192336 0.0159507 0.0132675 0.0133481 0.0108745 0.0150688 0.0138064 0.0121405);
    }
    nWall
    {
        type            kqRWallFunction;
        value           nonuniform List<scalar> 
14
(
0.00187434
0.00267088
0.00373287
0.0086573
0.00886319
0.00913065
0.00829528
0.00758809
0.00762844
0.00886172
0.00928509
0.00963187
0.00968066
0.00834161
)
;
    }
    sideWalls
    {
        type            empty;
    }
    glass1
    {
        type            kqRWallFunction;
        value           nonuniform List<scalar> 9(0.00158589 0.00340686 0.00549052 0.00797305 0.0108755 0.0141736 0.0179902 0.0216389 0.0228317);
    }
    glass2
    {
        type            kqRWallFunction;
        value           nonuniform List<scalar> 2(0.00652816 0.00821444);
    }
    sun
    {
        type            kqRWallFunction;
        value           nonuniform List<scalar> 
14
(
0.00158589
0.00180111
0.00178806
0.00194669
0.00209801
0.00224036
0.00237709
0.00251274
0.00265309
0.0028064
0.00295656
0.00310275
0.00325014
0.00341242
)
;
    }
    Table_master
    {
        type            kqRWallFunction;
        value           nonuniform List<scalar> 9(0.00266305 0.00201337 0.00157436 0.00126855 0.00104879 0.000886629 0.000764419 0.000671672 0.000603509);
    }
    Table_slave
    {
        type            kqRWallFunction;
        value           nonuniform List<scalar> 9(0.00345481 0.00285768 0.00243445 0.0021085 0.00184925 0.00163094 0.00143767 0.00125775 0.00107688);
    }
    inlet
    {
        type            turbulentIntensityKineticEnergyInlet;
        intensity       0.05;
        value           uniform 0.0009375;
    }
    outlet
    {
        type            zeroGradient;
    }
}


// ************************************************************************* //
