/*--------------------------------*- C++ -*----------------------------------*\
  =========                 |
  \\      /  F ield         | OpenFOAM: The Open Source CFD Toolbox
   \\    /   O peration     | Website:  https://openfoam.org
    \\  /    A nd           | Version:  6
     \\/     M anipulation  |
\*---------------------------------------------------------------------------*/
FoamFile
{
    version     2.0;
    format      ascii;
    class       volVectorField;
    location    "41299.9999994267928";
    object      U;
}
// * * * * * * * * * * * * * * * * * * * * * * * * * * * * * * * * * * * * * //

dimensions      [0 1 -1 0 0 0 0];

internalField   nonuniform List<vector> 
778
(
(0.0655996 0.0794085 0)
(-0.155175 0.0157681 0)
(-0.164307 0.0146291 0)
(-0.192431 0.0122792 0)
(-0.216875 0.0087278 0)
(-0.236941 0.00474469 0)
(-0.252072 0.000414908 0)
(-0.261841 -0.00437363 0)
(-0.265735 -0.00981901 0)
(-0.262752 -0.0162012 0)
(-0.250938 -0.0242759 0)
(-0.226228 -0.0348942 0)
(-0.1861 -0.0504133 0)
(-0.144172 -0.07518 0)
(-0.150083 -0.108566 0)
(0.0546407 0.0354304 0)
(0.0157352 -0.0268463 0)
(0.0448929 -0.023238 0)
(0.0692526 -0.0161355 0)
(0.0842705 -0.0103341 0)
(0.0914521 -0.00640988 0)
(0.0942814 -0.00433883 0)
(0.0953222 -0.0033161 0)
(0.0957814 -0.00272749 0)
(0.095952 -0.00231349 0)
(0.0958242 -0.0019491 0)
(0.0952953 -0.00150978 0)
(0.0940381 -0.000757918 0)
(0.0911956 0.000843193 0)
(0.0850013 0.00406124 0)
(0.0734833 0.007757 0)
(0.0598723 0.0115849 0)
(-0.00800907 0.0299571 0)
(0.258398 0.167393 0)
(-0.161233 0.0483962 0)
(-0.141608 0.0459898 0)
(-0.17402 0.041626 0)
(-0.199391 0.0356784 0)
(-0.220119 0.0291369 0)
(-0.236154 0.0220611 0)
(-0.247408 0.0142252 0)
(-0.253581 0.00528685 0)
(-0.253893 -0.00516801 0)
(-0.24773 -0.0171007 0)
(-0.234017 -0.0308672 0)
(-0.214104 -0.0480877 0)
(-0.197526 -0.0699656 0)
(-0.194004 -0.0826482 0)
(-0.166383 -0.0425819 0)
(-0.105321 -0.0364052 0)
(-0.0983359 -0.0444832 0)
(0.109341 -0.0420422 0)
(0.0644652 -0.0411035 0)
(0.0718682 -0.0322018 0)
(0.0858028 -0.0206476 0)
(0.0936548 -0.0104065 0)
(0.0958585 -0.0036238 0)
(0.095612 -0.000203769 0)
(0.0952276 0.00124146 0)
(0.0951948 0.00189517 0)
(0.0952775 0.00227275 0)
(0.095285 0.00259479 0)
(0.0951846 0.00313406 0)
(0.0948932 0.00441053 0)
(0.0936365 0.00771961 0)
(0.0880407 0.0167423 0)
(0.0742928 0.0252968 0)
(0.0630112 0.0328698 0)
(-0.0521526 0.0634972 0)
(0.42998 0.253955 0)
(-0.194231 0.0847659 0)
(-0.112782 0.0784471 0)
(-0.148253 0.0669732 0)
(-0.170692 0.0555169 0)
(-0.188793 0.0437401 0)
(-0.202635 0.0313499 0)
(-0.212329 0.018004 0)
(-0.217679 0.00338563 0)
(-0.218032 -0.0126534 0)
(-0.212768 -0.0303502 0)
(-0.201656 -0.0499341 0)
(-0.186013 -0.0715885 0)
(-0.169478 -0.0932239 0)
(-0.151111 -0.104571 0)
(-0.120276 -0.0931529 0)
(-0.0795916 -0.0949552 0)
(-0.0715501 -0.107589 0)
(0.092072 -0.0881289 0)
(0.0625282 -0.0656756 0)
(0.0743136 -0.0460252 0)
(0.0879174 -0.0291278 0)
(0.0947102 -0.0147751 0)
(0.0917609 -0.0119447 0)
(0.0875341 -0.00793882 0)
(0.0851702 -0.00579335 0)
(0.0844689 -0.00457148 0)
(0.0844403 -0.00380347 0)
(0.0846978 -0.00322653 0)
(0.0853534 -0.00259835 0)
(0.0871157 -0.00144062 0)
(0.0917968 0.00291493 0)
(0.0899362 0.0250958 0)
(0.0731102 0.0423045 0)
(0.0699367 0.0573159 0)
(-0.0903814 0.100722 0)
(0.57855 0.32584 0)
(-0.2401 0.121818 0)
(-0.080835 0.109241 0)
(-0.121581 0.089877 0)
(-0.13902 0.0740929 0)
(-0.153087 0.0586551 0)
(-0.163853 0.0427633 0)
(-0.171451 0.0258071 0)
(-0.175662 0.00718185 0)
(-0.175724 -0.0135587 0)
(-0.171029 -0.0365021 0)
(-0.161456 -0.0614826 0)
(-0.147588 -0.0873852 0)
(-0.130617 -0.110297 0)
(-0.109668 -0.123191 0)
(-0.082202 -0.124532 0)
(-0.0526024 -0.126363 0)
(-0.0334722 -0.123149 0)
(0.0162186 -0.0567898 0)
(0.060728 -0.0930076 0)
(0.0683818 -0.0791071 0)
(0.0790069 -0.0587097 0)
(0.0915033 -0.0394461 0)
(0.102855 -0.0207755 0)
(0.115595 -0.0131066 0)
(0.126699 -0.00876434 0)
(0.132253 -0.0055815 0)
(0.133212 -0.0030897 0)
(0.130678 -0.000873168 0)
(0.12521 0.00129445 0)
(0.116675 0.00367771 0)
(0.104303 0.00673678 0)
(0.0850229 0.0111708 0)
(0.0711463 0.0368564 0)
(0.0598241 0.0605166 0)
(0.0760184 0.0831557 0)
(-0.118488 0.136724 0)
(0.705738 0.383679 0)
(-0.287679 0.157012 0)
(-0.0476945 0.133804 0)
(-0.0962964 0.106948 0)
(-0.107751 0.087628 0)
(-0.116791 0.0692034 0)
(-0.123588 0.0504682 0)
(-0.128255 0.0305933 0)
(-0.130617 0.00871088 0)
(-0.12981 -0.0158496 0)
(-0.125304 -0.0431138 0)
(-0.116674 -0.0727117 0)
(-0.103949 -0.10283 0)
(-0.0874798 -0.129064 0)
(-0.0675317 -0.14575 0)
(-0.0441971 -0.152229 0)
(-0.0203419 -0.152342 0)
(0.000188417 -0.1437 0)
(0.0307142 -0.114971 0)
(0.0568785 -0.109315 0)
(0.0704534 -0.0923565 0)
(0.0805926 -0.0711486 0)
(0.0906547 -0.050672 0)
(0.100212 -0.0326317 0)
(0.109305 -0.0192919 0)
(0.116298 -0.00994539 0)
(0.119691 -0.00327029 0)
(0.119864 0.00196686 0)
(0.117437 0.00649909 0)
(0.112776 0.010843 0)
(0.105904 0.0155127 0)
(0.0967457 0.0212111 0)
(0.0847885 0.0292345 0)
(0.0731778 0.0472704 0)
(0.0625644 0.0712958 0)
(0.0941102 0.0992699 0)
(0.01574 0.137893 0)
(0.0951153 0.183057 0)
(0.141274 0.144557 0)
(-0.221221 0.202657 0)
(0.810457 0.431971 0)
(-0.331323 0.19068 0)
(-0.0173076 0.150274 0)
(-0.0733706 0.117556 0)
(-0.078598 0.0955541 0)
(-0.0822283 0.0749865 0)
(-0.084493 0.0543748 0)
(-0.0855407 0.0327354 0)
(-0.0852938 0.00885557 0)
(-0.0826239 -0.0184352 0)
(-0.0774546 -0.0490585 0)
(-0.068821 -0.0825239 0)
(-0.0568159 -0.1165 0)
(-0.041748 -0.146272 0)
(-0.0247405 -0.165955 0)
(-0.00634567 -0.174453 0)
(0.0120476 -0.172708 0)
(0.027956 -0.160968 0)
(0.04611 -0.139282 0)
(0.0625455 -0.122292 0)
(0.0732024 -0.102412 0)
(0.0808697 -0.0803283 0)
(0.0876154 -0.0589613 0)
(0.093781 -0.0400799 0)
(0.0990903 -0.0249237 0)
(0.10275 -0.0135963 0)
(0.104328 -0.00493545 0)
(0.103878 0.00222534 0)
(0.101715 0.00866469 0)
(0.0980841 0.014907 0)
(0.0931375 0.0214869 0)
(0.0870949 0.029046 0)
(0.0801973 0.0385035 0)
(0.0743583 0.0530073 0)
(0.0689071 0.0730701 0)
(0.0907703 0.0987473 0)
(0.0720972 0.10718 0)
(0.0885774 0.04705 0)
(0.146365 -0.0381588 0)
(-0.330244 0.10761 0)
(0.879951 0.474678 0)
(-0.368651 0.220961 0)
(0.00374102 0.155587 0)
(-0.0526619 0.121612 0)
(-0.0522103 0.097904 0)
(-0.051041 0.0758753 0)
(-0.0490504 0.05409 0)
(-0.0465478 0.0315647 0)
(-0.0433773 0.0067816 0)
(-0.0374306 -0.0223113 0)
(-0.0303616 -0.0553946 0)
(-0.0205751 -0.0919607 0)
(-0.00875313 -0.128892 0)
(0.00448233 -0.161211 0)
(0.017582 -0.181849 0)
(0.0303966 -0.190175 0)
(0.0422188 -0.187181 0)
(0.0525221 -0.174364 0)
(0.0624775 -0.153998 0)
(0.0710318 -0.132324 0)
(0.0765323 -0.109277 0)
(0.0799672 -0.0857407 0)
(0.0825367 -0.063534 0)
(0.0847404 -0.0440204 0)
(0.0865347 -0.0279301 0)
(0.0875882 -0.0151654 0)
(0.0876863 -0.00494158 0)
(0.0866842 0.00366686 0)
(0.0847801 0.0113481 0)
(0.0821196 0.018635 0)
(0.0788746 0.0260426 0)
(0.0753129 0.0340923 0)
(0.0718105 0.0433634 0)
(0.0696931 0.0551684 0)
(0.0682352 0.0698808 0)
(0.0808216 0.0891248 0)
(0.0830665 0.092192 0)
(0.0876429 0.0535171 0)
(0.181373 0.02315 0)
(-0.283899 0.154398 0)
(0.928018 0.517129 0)
(-0.383185 0.234168 0)
(0.016933 0.133012 0)
(-0.027323 0.116708 0)
(-0.0265492 0.0949847 0)
(-0.0227548 0.0724953 0)
(-0.017661 0.0501654 0)
(-0.0124049 0.0272977 0)
(-0.00548545 0.00190493 0)
(0.00449278 -0.0307422 0)
(0.0141984 -0.06535 0)
(0.0254983 -0.103358 0)
(0.0371588 -0.14087 0)
(0.0478703 -0.172133 0)
(0.0570035 -0.192313 0)
(0.0645283 -0.199784 0)
(0.0702685 -0.195346 0)
(0.0742248 -0.181131 0)
(0.0769112 -0.160022 0)
(0.0782479 -0.135998 0)
(0.077857 -0.110948 0)
(0.0763154 -0.086381 0)
(0.0744518 -0.0637801 0)
(0.0727898 -0.0441568 0)
(0.0714678 -0.0278998 0)
(0.0703567 -0.0147304 0)
(0.0692713 -0.00394768 0)
(0.0679249 0.00523263 0)
(0.0664454 0.0133992 0)
(0.0648069 0.0210525 0)
(0.0630918 0.0286407 0)
(0.0614813 0.0365495 0)
(0.0602548 0.0451172 0)
(0.0602208 0.0548771 0)
(0.0610763 0.0658508 0)
(0.0692362 0.0795915 0)
(0.077498 0.0829984 0)
(0.0749614 0.0605671 0)
(0.240124 0.049049 0)
(-0.554627 0.229898 0)
(1.01136 0.506788 0)
(-0.137312 0.296322 0)
(0.0410926 0.16152 0)
(0.0405879 0.12212 0)
(0.0130743 0.09203 0)
(0.0086555 0.0654342 0)
(0.0140643 0.0414599 0)
(0.0206694 0.0170372 0)
(0.0324516 -0.0109855 0)
(0.043898 -0.0421416 0)
(0.0557548 -0.0769303 0)
(0.0680327 -0.114676 0)
(0.0791908 -0.151142 0)
(0.0877278 -0.180596 0)
(0.0929891 -0.198606 0)
(0.0950747 -0.20375 0)
(0.0943868 -0.197075 0)
(0.0914708 -0.181005 0)
(0.087005 -0.15858 0)
(0.081443 -0.133115 0)
(0.07508 -0.107039 0)
(0.0685139 -0.082177 0)
(0.0624643 -0.059897 0)
(0.0574489 -0.0409381 0)
(0.0536606 -0.0254032 0)
(0.0510074 -0.0128059 0)
(0.049234 -0.00237017 0)
(0.0479452 0.00660427 0)
(0.047136 0.0146269 0)
(0.0465831 0.0221567 0)
(0.0462459 0.0295566 0)
(0.046182 0.0370912 0)
(0.0465228 0.0449483 0)
(0.047671 0.0533431 0)
(0.0494315 0.0621874 0)
(0.0545939 0.072207 0)
(0.0609132 0.0737854 0)
(0.0477547 0.0470148 0)
(0.292516 0.0693769 0)
(-0.793094 0.300812 0)
(0.779372 0.395693 0)
(0.000729835 0.319467 0)
(0.0933635 0.218895 0)
(0.110582 0.155166 0)
(0.0771437 0.106839 0)
(0.059771 0.0675839 0)
(0.0581869 0.0358137 0)
(0.0623411 0.00646566 0)
(0.0737451 -0.0233949 0)
(0.0852989 -0.0550312 0)
(0.0974828 -0.0897806 0)
(0.10935 -0.126324 0)
(0.118744 -0.160127 0)
(0.123882 -0.185842 0)
(0.124156 -0.199898 0)
(0.11998 -0.201461 0)
(0.112299 -0.191901 0)
(0.102184 -0.173772 0)
(0.0906767 -0.150102 0)
(0.0786189 -0.123921 0)
(0.0667006 -0.0977611 0)
(0.055648 -0.0735383 0)
(0.0461828 -0.0525189 0)
(0.0387731 -0.0351629 0)
(0.0335261 -0.0212844 0)
(0.0302235 -0.0101219 0)
(0.0284223 -0.000764264 0)
(0.0276667 0.00742319 0)
(0.027703 0.0148949 0)
(0.0282022 0.0220384 0)
(0.0290427 0.0291086 0)
(0.0301812 0.0362693 0)
(0.0316037 0.0436367 0)
(0.033367 0.0513595 0)
(0.0349463 0.0595723 0)
(0.0362769 0.0692856 0)
(0.0257551 0.0768081 0)
(0.0140236 0.0955032 0)
(0.0872501 0.163736 0)
(-0.666194 0.286074 0)
(0.617298 0.220837 0)
(0.00456902 0.298097 0)
(0.11301 0.241519 0)
(0.148285 0.17753 0)
(0.130849 0.123498 0)
(0.117827 0.0778467 0)
(0.114957 0.0389234 0)
(0.117108 0.00344135 0)
(0.123449 -0.0306728 0)
(0.131655 -0.0649857 0)
(0.141331 -0.100524 0)
(0.150214 -0.135448 0)
(0.155364 -0.165362 0)
(0.154847 -0.185915 0)
(0.148341 -0.194795 0)
(0.136737 -0.192029 0)
(0.121501 -0.179371 0)
(0.104135 -0.1594 0)
(0.0860126 -0.135024 0)
(0.0682381 -0.109025 0)
(0.0517553 -0.0838733 0)
(0.0374213 -0.0614308 0)
(0.0259738 -0.0428155 0)
(0.0176894 -0.0280996 0)
(0.0123768 -0.0167327 0)
(0.00942946 -0.00759116 0)
(0.00813626 0.000288985 0)
(0.00817155 0.00743428 0)
(0.00898627 0.0142159 0)
(0.0103395 0.020894 0)
(0.0120932 0.0276145 0)
(0.0141482 0.0344738 0)
(0.0164033 0.0415717 0)
(0.0188008 0.0491192 0)
(0.0211106 0.0576835 0)
(0.0231022 0.0696581 0)
(0.00977842 0.0899187 0)
(-0.0086322 0.130214 0)
(0.191284 0.177324 0)
(-0.566741 0.205236 0)
(0.570774 0.118508 0)
(-0.0203773 0.258607 0)
(0.113716 0.229851 0)
(0.165068 0.176025 0)
(0.166738 0.126171 0)
(0.164399 0.0811177 0)
(0.165374 0.0400208 0)
(0.168255 0.00169541 0)
(0.172192 -0.0353238 0)
(0.177743 -0.0718697 0)
(0.183899 -0.107589 0)
(0.187591 -0.139704 0)
(0.185799 -0.164316 0)
(0.177139 -0.178593 0)
(0.162053 -0.181733 0)
(0.142078 -0.174635 0)
(0.119156 -0.159344 0)
(0.0950447 -0.138304 0)
(0.0713433 -0.114233 0)
(0.0492733 -0.0896111 0)
(0.0299965 -0.0668154 0)
(0.0144673 -0.0475662 0)
(0.0032887 -0.0326675 0)
(-0.00394777 -0.021361 0)
(-0.00790547 -0.0129649 0)
(-0.00988656 -0.0058868 0)
(-0.0104865 0.000552136 0)
(-0.00994822 0.00669157 0)
(-0.00866199 0.0127737 0)
(-0.00676921 0.0189415 0)
(-0.00440886 0.0252836 0)
(-0.00172985 0.0318778 0)
(0.00111049 0.0388697 0)
(0.00401426 0.0463999 0)
(0.00713589 0.0552039 0)
(0.00915853 0.0701415 0)
(-0.00555315 0.0998193 0)
(-0.0235443 0.133499 0)
(0.220011 0.179507 0)
(-0.507935 0.200537 0)
(0.628356 0.0538114 0)
(0.00908512 0.1973 0)
(0.113823 0.196896 0)
(0.175159 0.157885 0)
(0.19143 0.117671 0)
(0.198092 0.0772991 0)
(0.203407 0.0373412 0)
(0.208578 -0.00141149 0)
(0.213037 -0.0395607 0)
(0.217312 -0.076462 0)
(0.219111 -0.109946 0)
(0.215269 -0.136832 0)
(0.203892 -0.154491 0)
(0.185062 -0.161913 0)
(0.160397 -0.159658 0)
(0.132069 -0.14914 0)
(0.102339 -0.132449 0)
(0.0729293 -0.11168 0)
(0.0456322 -0.0893588 0)
(0.0216091 -0.067637 0)
(0.00241613 -0.0488397 0)
(-0.0111682 -0.0344408 0)
(-0.019248 -0.0245542 0)
(-0.0239879 -0.0170125 0)
(-0.0265728 -0.0107419 0)
(-0.027807 -0.00506388 0)
(-0.0279773 0.000317359 0)
(-0.0272165 0.00560947 0)
(-0.0256801 0.0109957 0)
(-0.0234663 0.0166111 0)
(-0.020737 0.0225698 0)
(-0.0177365 0.0289955 0)
(-0.0148369 0.0360736 0)
(-0.0124072 0.0441293 0)
(-0.0109196 0.0548087 0)
(-0.0157462 0.0762563 0)
(-0.0363149 0.108926 0)
(-0.0346205 0.132371 0)
(0.112869 0.180207 0)
(-0.524348 0.214867 0)
(0.47308 0.0748494 0)
(-0.132203 0.137521 0)
(0.0942804 0.133183 0)
(0.172794 0.116707 0)
(0.203924 0.0953023 0)
(0.218213 0.0644205 0)
(0.22817 0.0284783 0)
(0.237187 -0.00882312 0)
(0.243517 -0.04517 0)
(0.244988 -0.0781611 0)
(0.238982 -0.105109 0)
(0.224131 -0.123924 0)
(0.200948 -0.133723 0)
(0.171343 -0.134947 0)
(0.137917 -0.128863 0)
(0.102984 -0.116755 0)
(0.0689076 -0.100512 0)
(0.0368948 -0.0817488 0)
(0.0093812 -0.0629781 0)
(-0.0130543 -0.0459957 0)
(-0.027069 -0.0343587 0)
(-0.0356982 -0.0260789 0)
(-0.0407221 -0.0197346 0)
(-0.0437159 -0.0142659 0)
(-0.04542 -0.0093041 0)
(-0.0461786 -0.00463785 0)
(-0.0460715 -0.00014122 0)
(-0.045139 0.0043367 0)
(-0.0434038 0.00898174 0)
(-0.0409221 0.0140004 0)
(-0.0378805 0.0196019 0)
(-0.0346179 0.0260455 0)
(-0.0317701 0.0337572 0)
(-0.030201 0.0436856 0)
(-0.0306754 0.0589973 0)
(-0.0386465 0.0874573 0)
(-0.0624192 0.127518 0)
(-0.0612008 0.155563 0)
(-0.0409219 0.171558 0)
(-0.55737 0.152926 0)
(0.724229 0.134522 0)
(0.0818407 0.115273 0)
(0.149792 0.0990991 0)
(0.222483 0.0803396 0)
(0.244178 0.0698498 0)
(0.248978 0.0477027 0)
(0.255231 0.0176897 0)
(0.261297 -0.0145041 0)
(0.260282 -0.0445241 0)
(0.249756 -0.0694153 0)
(0.229463 -0.0874364 0)
(0.20096 -0.098087 0)
(0.16662 -0.101647 0)
(0.129008 -0.0991299 0)
(0.0906763 -0.0918285 0)
(0.0531198 -0.0804438 0)
(0.0191803 -0.0666716 0)
(-0.0115752 -0.0516355 0)
(-0.0331116 -0.0399213 0)
(-0.0473335 -0.0315366 0)
(-0.055809 -0.0257455 0)
(-0.0609317 -0.0210127 0)
(-0.0641059 -0.0166719 0)
(-0.0661249 -0.0124524 0)
(-0.0673033 -0.00839276 0)
(-0.0677379 -0.00453195 0)
(-0.067419 -0.000830242 0)
(-0.066287 0.00284783 0)
(-0.0643799 0.00671304 0)
(-0.0616448 0.0110632 0)
(-0.0582226 0.0162372 0)
(-0.0543796 0.0226801 0)
(-0.0506707 0.0311286 0)
(-0.0477487 0.0430635 0)
(-0.0447745 0.061775 0)
(-0.0421771 0.093392 0)
(-0.0507279 0.140788 0)
(-0.0385613 0.187891 0)
(0.0477809 0.178792 0)
(-0.55025 0.0296264 0)
(0.192069 0.0878547 0)
(0.225866 0.0995761 0)
(0.246647 0.0700593 0)
(0.242701 0.0399242 0)
(0.239834 0.0123977 0)
(0.234851 -0.0125538 0)
(0.220146 -0.0330426 0)
(0.196411 -0.0482295 0)
(0.165947 -0.0580679 0)
(0.1312 -0.0630075 0)
(0.0939759 -0.0633434 0)
(0.056319 -0.0598725 0)
(0.0202829 -0.0535448 0)
(-0.0147171 -0.0446082 0)
(-0.041316 -0.0364132 0)
(-0.0609586 -0.0299333 0)
(-0.0737249 -0.0258371 0)
(-0.0817015 -0.0229292 0)
(-0.0867361 -0.0203485 0)
(-0.090183 -0.0174521 0)
(-0.0926571 -0.0142357 0)
(-0.0944055 -0.0108933 0)
(-0.0955039 -0.00763336 0)
(-0.0959609 -0.00456107 0)
(-0.0957479 -0.00165274 0)
(-0.0947568 0.00123354 0)
(-0.0930358 0.0043023 0)
(-0.0903829 0.00786638 0)
(-0.0867156 0.0123522 0)
(-0.0819304 0.018301 0)
(-0.0760361 0.0265237 0)
(-0.0689796 0.0384425 0)
(-0.0591851 0.0566502 0)
(-0.0436012 0.0852227 0)
(-0.0280457 0.128237 0)
(-0.0124893 0.184834 0)
(0.149149 0.179399 0)
(-0.407237 0.0618928 0)
(0.451249 0.209341 0)
(0.206345 0.178502 0)
(0.152732 0.11867 0)
(0.139673 0.0640757 0)
(0.12839 0.0260575 0)
(0.114328 0.00203125 0)
(0.0990378 -0.0126517 0)
(0.0779019 -0.0216977 0)
(0.0529431 -0.0271941 0)
(0.0253507 -0.0295602 0)
(-0.00514266 -0.0287443 0)
(-0.0346423 -0.0259403 0)
(-0.0606178 -0.0226786 0)
(-0.0818548 -0.020232 0)
(-0.0969257 -0.019516 0)
(-0.106886 -0.0196343 0)
(-0.113285 -0.0198012 0)
(-0.117846 -0.0190342 0)
(-0.121534 -0.0171311 0)
(-0.124719 -0.0142909 0)
(-0.127441 -0.0109139 0)
(-0.129637 -0.00742238 0)
(-0.131243 -0.00417872 0)
(-0.13223 -0.00141738 0)
(-0.132598 0.000794214 0)
(-0.132273 0.00256782 0)
(-0.13116 0.00419916 0)
(-0.128973 0.00607466 0)
(-0.125301 0.00856907 0)
(-0.119614 0.012172 0)
(-0.11137 0.0176711 0)
(-0.099898 0.0263646 0)
(-0.0835207 0.0402014 0)
(-0.0591163 0.0616901 0)
(-0.0272316 0.0935616 0)
(0.00171491 0.141247 0)
(0.180254 0.148093 0)
(-0.368677 0.117854 0)
(0.359726 -0.415511 0)
(-0.345582 -0.512132 0)
(-0.218088 -0.0278082 0)
(-0.0930303 0.11079 0)
(-0.0536302 0.0925727 0)
(-0.0312313 0.0547254 0)
(-0.0263562 0.0286885 0)
(-0.0313507 0.0120761 0)
(-0.0403442 0.0014361 0)
(-0.0511002 -0.00540784 0)
(-0.0650823 -0.00947786 0)
(-0.0809094 -0.0116532 0)
(-0.097392 -0.0132315 0)
(-0.113005 -0.0155715 0)
(-0.126538 -0.018623 0)
(-0.136694 -0.0217777 0)
(-0.143042 -0.0246747 0)
(-0.146976 -0.0266849 0)
(-0.150085 -0.027751 0)
(-0.153284 -0.0279776 0)
(-0.156776 -0.0275569 0)
(-0.160441 -0.0266736 0)
(-0.164069 -0.0254726 0)
(-0.167437 -0.0240126 0)
(-0.170316 -0.0222615 0)
(-0.172479 -0.0201549 0)
(-0.173756 -0.0176855 0)
(-0.174083 -0.0149468 0)
(-0.173471 -0.0121281 0)
(-0.171868 -0.00926137 0)
(-0.168825 -0.00615471 0)
(-0.163585 -0.00246327 0)
(-0.155104 0.00249035 0)
(-0.14207 0.00977322 0)
(-0.122461 0.0204412 0)
(-0.0933171 0.0348974 0)
(-0.0532789 0.053877 0)
(-0.00933821 0.0855645 0)
(0.198543 0.122076 0)
(-0.423467 0.1826 0)
(0.122931 -0.185626 0)
(-0.388 -0.297694 0)
(-0.34307 -0.0965637 0)
(-0.264843 0.0512629 0)
(-0.211169 0.0832979 0)
(-0.179026 0.0744399 0)
(-0.162709 0.0610769 0)
(-0.156648 0.051262 0)
(-0.156647 0.0462598 0)
(-0.15987 0.0458184 0)
(-0.164429 0.049064 0)
(-0.168757 0.0547485 0)
(-0.171976 0.0614386 0)
(-0.173913 0.0671406 0)
(-0.17498 0.0690013 0)
(-0.176122 0.0650437 0)
(-0.178072 0.0593706 0)
(-0.181134 0.0552074 0)
(-0.185108 0.053527 0)
(-0.189557 0.0539503 0)
(-0.194007 0.05575 0)
(-0.198069 0.0582113 0)
(-0.2015 0.0606508 0)
(-0.204191 0.0624151 0)
(-0.206126 0.0629698 0)
(-0.207308 0.0620621 0)
(-0.207707 0.0598362 0)
(-0.20729 0.0567323 0)
(-0.206082 0.053156 0)
(-0.204064 0.0489954 0)
(-0.200962 0.0439052 0)
(-0.196188 0.0375033 0)
(-0.188903 0.0295803 0)
(-0.178322 0.020159 0)
(-0.163806 0.00875619 0)
(-0.14383 -0.00644782 0)
(-0.113754 -0.0246018 0)
(-0.0627416 -0.0283952 0)
(0.202696 0.0591591 0)
(-0.512276 0.239359 0)
(1.14842 -0.0108139 0)
(-0.296635 -0.322639 0)
(-0.35299 -0.232448 0)
(-0.352674 -0.148161 0)
(-0.329087 -0.106955 0)
(-0.297555 -0.0983771 0)
(-0.270301 -0.100453 0)
(-0.250341 -0.105886 0)
(-0.236614 -0.113042 0)
(-0.226993 -0.121921 0)
(-0.219638 -0.133047 0)
(-0.213458 -0.146861 0)
(-0.208154 -0.162828 0)
(-0.204078 -0.178684 0)
(-0.202151 -0.190338 0)
(-0.203572 -0.194645 0)
(-0.208789 -0.194019 0)
(-0.216612 -0.19049 0)
(-0.225391 -0.185748 0)
(-0.233798 -0.180912 0)
(-0.241013 -0.176517 0)
(-0.24662 -0.172668 0)
(-0.250487 -0.1692 0)
(-0.252716 -0.165823 0)
(-0.253632 -0.16224 0)
(-0.253707 -0.158219 0)
(-0.253416 -0.153644 0)
(-0.253068 -0.148507 0)
(-0.252829 -0.142857 0)
(-0.252926 -0.136806 0)
(-0.253777 -0.130433 0)
(-0.255957 -0.123565 0)
(-0.260285 -0.115429 0)
(-0.26811 -0.104269 0)
(-0.280769 -0.0872804 0)
(-0.296148 -0.0610193 0)
(-0.303068 -0.0212801 0)
(-0.28765 0.0380704 0)
(-0.284409 0.120299 0)
(-0.638786 0.224743 0)
)
;

boundaryField
{
    floor
    {
        type            noSlip;
    }
    ceiling
    {
        type            noSlip;
    }
    sWall
    {
        type            noSlip;
    }
    nWall
    {
        type            noSlip;
    }
    sideWalls
    {
        type            empty;
    }
    glass1
    {
        type            noSlip;
    }
    glass2
    {
        type            noSlip;
    }
    sun
    {
        type            noSlip;
    }
    Table_master
    {
        type            noSlip;
    }
    Table_slave
    {
        type            noSlip;
    }
    inlet
    {
        type            fixedValue;
        value           uniform (0.5 0 0);
    }
    outlet
    {
        type            zeroGradient;
    }
}


// ************************************************************************* //
