/*--------------------------------*- C++ -*----------------------------------*\
  =========                 |
  \\      /  F ield         | OpenFOAM: The Open Source CFD Toolbox
   \\    /   O peration     | Website:  https://openfoam.org
    \\  /    A nd           | Version:  6
     \\/     M anipulation  |
\*---------------------------------------------------------------------------*/
FoamFile
{
    version     2.0;
    format      ascii;
    class       volScalarField;
    location    "4840";
    object      nut;
}
// * * * * * * * * * * * * * * * * * * * * * * * * * * * * * * * * * * * * * //

dimensions      [0 2 -1 0 0 0 0];

internalField   nonuniform List<scalar> 
458
(
0.0010694
0.00116385
0.00119015
0.00124709
0.00129953
0.00134919
0.0013989
0.00144932
0.00149054
0.00151644
0.00151936
0.00149179
0.00142425
0.00128127
0.00097197
0.000480396
0.000563173
0.000638499
0.000665751
0.000655332
0.000613259
0.000566709
0.000525057
0.00048897
0.000457633
0.00043027
0.000406311
0.000385078
0.000365739
0.000347395
0.000328976
0.000318032
0.00029229
0.001442
0.00324252
0.00299051
0.00342655
0.0038613
0.00430844
0.00470934
0.00501955
0.0053382
0.00563636
0.00587548
0.00602092
0.00603459
0.00582476
0.00473482
0.00128297
0.0010644
0.000868435
0.00047652
0.00113088
0.00164829
0.00204898
0.0021756
0.00158548
0.00133851
0.00117037
0.00104633
0.000951283
0.00087594
0.000810985
0.000749877
0.000688882
0.0006344
0.000588591
0.000720003
0.000384257
0.00175321
0.00435745
0.003596
0.00438461
0.00471629
0.00494902
0.00512785
0.00529304
0.00552251
0.00580158
0.00610656
0.00640542
0.00664154
0.00672487
0.00633679
0.00516491
0.00391439
0.00102562
0.000734004
0.00126657
0.00184328
0.00241715
0.00258109
0.00082421
0.000721588
0.000636185
0.000567021
0.000511208
0.000465976
0.000429208
0.000399476
0.000376349
0.000417083
0.00048304
0.000844714
0.00045409
0.00205328
0.00556673
0.00349818
0.00454302
0.00472473
0.00470696
0.00469044
0.00476983
0.00495623
0.00523215
0.00558275
0.00597396
0.00631696
0.00653319
0.00648472
0.00614986
0.00527795
0.00289775
0.00118159
0.00150484
0.00206904
0.00276004
0.00335864
0.00338825
0.000928385
0.000851
0.000798289
0.000759383
0.000726482
0.00069384
0.000662797
0.000629997
0.000591653
0.000557356
0.00054916
0.00100685
0.000522982
0.00235968
0.00719301
0.00366947
0.00431279
0.00457258
0.00441855
0.00429299
0.00436509
0.0045619
0.0048492
0.0052272
0.00565622
0.0059923
0.00615994
0.00615628
0.00603955
0.00569146
0.00470637
0.00426545
0.00429699
0.00454785
0.00484667
0.00503011
0.00494794
0.00422188
0.00384849
0.00364221
0.00349467
0.00334533
0.00315284
0.00282603
0.0024052
0.0019265
0.00146547
0.0010991
0.00102379
0.000888767
0.000699217
0.000740174
0.000804525
0.00268783
0.00902585
0.0050261
0.00399314
0.00435252
0.00434416
0.00418439
0.00424426
0.00444534
0.00473237
0.00511564
0.00552715
0.00583846
0.00593777
0.005844
0.00571008
0.00564961
0.00556881
0.00573677
0.00602792
0.00623228
0.00626876
0.00613149
0.00584453
0.00544363
0.00511774
0.0048634
0.00463963
0.00442033
0.00418765
0.00388639
0.00347347
0.00295123
0.00236044
0.00181366
0.0013149
0.00108078
0.000942861
0.00118734
0.000834447
0.00301107
0.0104103
0.00750088
0.00490779
0.00427106
0.004333
0.00438934
0.00442076
0.00453406
0.00478691
0.00516419
0.00557213
0.00585783
0.00589002
0.00571171
0.00558304
0.00579808
0.00627372
0.00675837
0.0070321
0.00703349
0.00679986
0.00640271
0.00591992
0.00543933
0.00505238
0.00475933
0.00452171
0.00431388
0.0041272
0.00395728
0.00373498
0.00336965
0.00288241
0.00237598
0.00188912
0.00157134
0.00143955
0.00137216
0.000991352
0.00309072
0.00966355
0.00820335
0.00688321
0.00587505
0.00542904
0.00501071
0.00472545
0.00471894
0.00495975
0.00535015
0.00575364
0.00599464
0.00594041
0.00572224
0.0057786
0.00639257
0.00689605
0.00715814
0.00714638
0.00686266
0.00637165
0.00576615
0.00515637
0.00464999
0.00429513
0.00405579
0.00388379
0.00375672
0.00367098
0.00363287
0.0036342
0.00353671
0.00324679
0.00296413
0.00280668
0.00287513
0.00303525
0.00360528
0.00153578
0.0030299
0.00365341
0.0040343
0.00424626
0.0042757
0.00421072
0.00421091
0.00438525
0.00474109
0.00519594
0.005663
0.00603242
0.00615299
0.005943
0.00588496
0.00619704
0.00655745
0.00668125
0.00659226
0.00627996
0.00575729
0.00511091
0.00446655
0.0039376
0.00357182
0.00333884
0.00318253
0.00306375
0.00296245
0.00286725
0.00276957
0.00266233
0.00256514
0.00248129
0.00242567
0.00239425
0.00233475
0.00221195
0.00206264
0.00143461
0.0013352
0.00234714
0.00322227
0.00390684
0.00453207
0.00514137
0.00562591
0.00595264
0.00616724
0.00620158
0.00600165
0.00575695
0.00575878
0.00586274
0.00578415
0.00555142
0.00518431
0.00468994
0.00412071
0.00356503
0.00312281
0.00282505
0.00264253
0.00253071
0.00245629
0.00240208
0.00236047
0.00232975
0.00231248
0.00231791
0.00233146
0.00234359
0.0023443
0.00230724
0.002193
0.00199164
0.0017421
0.00115432
0.00201499
0.00395739
0.00507476
0.00580005
0.00636499
0.00641503
0.00608759
0.00575748
0.0054737
0.00492869
0.00454032
0.00444985
0.00438837
0.00421674
0.00395788
0.00363703
0.00326052
0.00286477
0.00250811
0.00223071
0.00203957
0.0019294
0.00187785
0.00186682
0.00188529
0.00192593
0.00198272
0.00204835
0.00212509
0.00221348
0.00230799
0.00240085
0.00247648
0.00251433
0.00247935
0.00244879
0.00225453
0.00116928
0.00211913
0.00217149
0.00221907
0.00246888
0.00233372
0.00206829
0.0017449
0.00148453
0.00132511
0.00117365
0.00104026
0.000935854
0.000847403
0.000780333
0.000733681
0.000699629
0.000672234
0.00064866
0.000629196
0.000616064
0.000611167
0.000614849
0.000625764
0.000641809
0.000662083
0.000686109
0.000713727
0.000745162
0.000780905
0.000822062
0.000868859
0.000920978
0.000978688
0.00104226
0.00111172
0.00119498
0.00123143
0.00120622
0.00112194
0.00103762
)
;

boundaryField
{
    floor
    {
        type            nutkWallFunction;
        Cmu             0.09;
        kappa           0.41;
        E               9.8;
        value           nonuniform List<scalar> 
36
(
0.000117415
5.72046e-05
6.77294e-05
7.7142e-05
8.05135e-05
7.92264e-05
7.40038e-05
6.81745e-05
6.29087e-05
5.83046e-05
5.42722e-05
5.07228e-05
4.75915e-05
4.47967e-05
4.22341e-05
3.97871e-05
3.73132e-05
3.58347e-05
3.233e-05
3.23299e-05
4.46876e-05
5.38133e-05
6.26442e-05
8.46304e-05
8.96381e-05
9.74411e-05
0.000117415
0.00015352
0.000128266
0.000105117
5.72046e-05
0.000105117
5.67064e-05
0.000123728
8.88863e-05
0.000141873
)
;
    }
    ceiling
    {
        type            nutkWallFunction;
        Cmu             0.09;
        kappa           0.41;
        E               9.8;
        value           nonuniform List<scalar> 
43
(
0.000246187
0.000251841
0.000256969
0.000283773
0.000269378
0.000240789
0.000205399
0.000176377
0.000158332
0.000140959
0.000125446
0.000113145
0.000102599
9.45167e-05
8.88467e-05
8.46812e-05
8.13125e-05
7.84004e-05
7.59865e-05
7.43527e-05
7.37425e-05
7.42013e-05
7.55599e-05
7.75517e-05
8.00601e-05
8.30206e-05
8.64086e-05
9.0246e-05
9.45859e-05
9.95544e-05
0.000105169
0.00011138
0.000118211
0.000125681
0.000133786
0.000143424
0.000147619
0.000144719
0.000134973
0.000125139
0.000343194
0.00040761
0.000234819
)
;
    }
    sWall
    {
        type            nutkWallFunction;
        Cmu             0.09;
        kappa           0.41;
        E               9.8;
        value           uniform 0.000246253;
    }
    nWall
    {
        type            nutkWallFunction;
        Cmu             0.09;
        kappa           0.41;
        E               9.8;
        value           nonuniform List<scalar> 6(9.74417e-05 0.000101045 0.000119707 0.000138737 0.000140468 0.000125146);
    }
    sideWalls
    {
        type            empty;
    }
    glass1
    {
        type            nutkWallFunction;
        Cmu             0.09;
        kappa           0.41;
        E               9.8;
        value           nonuniform List<scalar> 9(0.000128958 0.000171813 0.000206643 0.000239586 0.000272694 0.000307648 0.000341646 0.000349974 0.000343642);
    }
    glass2
    {
        type            nutkWallFunction;
        Cmu             0.09;
        kappa           0.41;
        E               9.8;
        value           nonuniform List<scalar> 2(0.000182232 0.000170839);
    }
    sun
    {
        type            nutkWallFunction;
        Cmu             0.09;
        kappa           0.41;
        E               9.8;
        value           nonuniform List<scalar> 
14
(
0.000128854
0.000139823
0.00014286
0.000149409
0.000155412
0.000161072
0.000166713
0.000172413
0.000177056
0.000179966
0.000180294
0.000177196
0.000169581
0.000153324
)
;
    }
    Table_master
    {
        type            nutkWallFunction;
        Cmu             0.09;
        kappa           0.41;
        E               9.8;
        value           nonuniform List<scalar> 9(9.98119e-05 8.73713e-05 7.68576e-05 6.82182e-05 6.11527e-05 5.53569e-05 5.05938e-05 4.67047e-05 4.36541e-05);
    }
    Table_slave
    {
        type            nutkWallFunction;
        Cmu             0.09;
        kappa           0.41;
        E               9.8;
        value           nonuniform List<scalar> 9(0.000112257 0.000103029 9.66878e-05 9.1976e-05 8.7969e-05 8.39721e-05 8.01503e-05 7.60885e-05 7.13079e-05);
    }
    inlet
    {
        type            calculated;
        value           uniform 0.000167705;
    }
    outlet
    {
        type            calculated;
        value           nonuniform List<scalar> 2(0.00211913 0.00217149);
    }
}


// ************************************************************************* //
