/*--------------------------------*- C++ -*----------------------------------*\
  =========                 |
  \\      /  F ield         | OpenFOAM: The Open Source CFD Toolbox
   \\    /   O peration     | Website:  https://openfoam.org
    \\  /    A nd           | Version:  6
     \\/     M anipulation  |
\*---------------------------------------------------------------------------*/
FoamFile
{
    version     2.0;
    format      ascii;
    class       volScalarField;
    location    "700";
    object      epsilon;
}
// * * * * * * * * * * * * * * * * * * * * * * * * * * * * * * * * * * * * * //

dimensions      [0 2 -3 0 0 0 0];

internalField   nonuniform List<scalar> 
458
(
0.00043326
0.000558548
0.00059727
0.000687162
0.000777562
0.000870162
0.000969894
0.00107865
0.00117335
0.00123556
0.00124263
0.00117604
0.00102317
0.00074448
0.000325316
3.92663e-05
6.32523e-05
9.21957e-05
0.000104543
9.97226e-05
8.17112e-05
6.44727e-05
5.12703e-05
4.14079e-05
3.3943e-05
2.82086e-05
2.37558e-05
2.02227e-05
1.73266e-05
1.48486e-05
1.261e-05
1.13912e-05
8.84202e-06
0.00106201
0.0015843
0.000519083
0.000503254
0.000519148
0.000551696
0.000607157
0.000689506
0.00078088
0.000855163
0.000883222
0.000848862
0.000757759
0.00062459
0.00050253
0.000748357
0.000427381
0.000232095
3.83159e-05
7.53982e-05
9.28465e-05
9.35576e-05
8.98646e-05
9.01685e-05
7.06576e-05
5.35597e-05
4.08528e-05
3.15687e-05
2.47642e-05
1.97404e-05
1.59811e-05
1.3179e-05
1.14143e-05
1.06948e-05
3.04734e-05
2.00695e-05
0.00190874
0.00384933
0.000604446
0.000458855
0.000466646
0.00050889
0.000581355
0.000684768
0.000798424
0.00088577
0.000919443
0.000889232
0.00080309
0.000667984
0.000518324
0.000417039
0.000353632
0.000382567
0.000139882
0.000139273
0.000125692
0.00011167
0.00010369
0.00019845
0.000133155
9.12493e-05
6.46011e-05
4.7334e-05
3.58445e-05
2.80084e-05
2.25787e-05
1.88779e-05
1.48352e-05
1.31318e-05
6.48313e-05
3.31171e-05
0.00306509
0.00799675
0.000904746
0.000439484
0.000429754
0.000481907
0.000575862
0.000719167
0.000864163
0.000959654
0.000990929
0.000954484
0.000856516
0.000704341
0.00054933
0.000433062
0.000366489
0.000381088
0.000584868
0.000376409
0.000245564
0.000178594
0.000140735
0.000123244
0.000283795
0.000218578
0.000180415
0.000155288
0.000135953
0.000118396
0.000103191
8.86027e-05
7.33764e-05
4.54309e-05
2.93048e-05
0.000114592
5.06011e-05
0.00465258
0.0144299
0.0017419
0.000471442
0.000396148
0.000452297
0.000590008
0.000834474
0.00102023
0.00111362
0.0011302
0.00107091
0.000938832
0.000754754
0.000565652
0.000420713
0.00033222
0.000303177
0.000304284
0.000254021
0.000209759
0.000175467
0.00014661
0.000122339
0.000113307
0.000104017
9.77073e-05
9.23353e-05
8.63159e-05
7.88637e-05
7.09614e-05
6.32171e-05
5.59479e-05
4.60573e-05
3.62057e-05
7.4734e-05
0.000114545
0.000120935
0.000143476
0.000184249
0.00687531
0.0217376
0.00400457
0.00079189
0.000465911
0.000475031
0.000702737
0.00112227
0.00130838
0.00136806
0.00134577
0.00124818
0.00106884
0.000826361
0.000578437
0.000389341
0.000279338
0.000238992
0.000228687
0.000218685
0.000201562
0.000177158
0.000149643
0.000124036
0.000107546
0.000101076
9.98792e-05
9.94494e-05
9.72902e-05
9.17336e-05
8.17666e-05
7.0494e-05
5.98412e-05
5.01742e-05
4.34602e-05
5.55237e-05
8.83312e-05
0.000106102
0.00020666
0.000205582
0.0096623
0.0261971
0.00879948
0.0028041
0.00145694
0.00114383
0.00148679
0.00172971
0.00178872
0.00175181
0.00165248
0.00148592
0.0012318
0.000909326
0.000589005
0.000356457
0.000234977
0.000200675
0.000202844
0.000203488
0.000190485
0.000167254
0.000141668
0.000120452
0.000109249
0.000108679
0.000113756
0.000120223
0.000125779
0.000128216
0.000124135
0.000111125
9.75306e-05
8.59811e-05
8.04933e-05
8.87605e-05
0.000120613
0.000176798
0.000327319
0.000344827
0.0104499
0.0300926
0.0160962
0.00965574
0.00597457
0.00418595
0.00338782
0.00287934
0.00254122
0.00228437
0.00204236
0.00176388
0.0013992
0.000969512
0.000561949
0.000300904
0.000190797
0.00017481
0.00018007
0.00017754
0.000162581
0.000142267
0.000124357
0.000113699
0.000112339
0.000119132
0.000131219
0.000146885
0.000165753
0.000187731
0.000212028
0.00023296
0.000246066
0.000273216
0.000329191
0.000480178
0.000820536
0.00137754
0.00410935
0.00128182
0.00984551
0.0172581
0.0132416
0.00999107
0.0075092
0.00579561
0.00459167
0.00379337
0.00325444
0.0028277
0.00243098
0.00200977
0.00148569
0.000914823
0.000407206
0.000216358
0.000159169
0.000147832
0.000144748
0.000137196
0.000124818
0.000112652
0.00010508
0.000104175
0.000109989
0.000121539
0.000138072
0.000159891
0.000188353
0.000225705
0.000275017
0.000339909
0.000427237
0.00055194
0.000733984
0.000976614
0.00125078
0.00149838
0.00170314
0.00104485
0.00347815
0.00471952
0.00512325
0.00503005
0.0047364
0.00432444
0.00378884
0.00316369
0.00255249
0.00195108
0.00116365
0.000536305
0.000254387
0.000159643
0.000129166
0.000118204
0.000110925
0.00010309
9.54234e-05
8.99186e-05
8.83756e-05
9.12281e-05
9.80854e-05
0.000108542
0.000122599
0.000140836
0.0001645
0.000195713
0.000237944
0.000296965
0.000378425
0.000488551
0.000629904
0.000786401
0.00091126
0.000944803
0.000871292
0.000544312
0.00289531
0.00862605
0.00828969
0.00718117
0.00608342
0.00479667
0.00348396
0.00225933
0.00128479
0.00071054
0.000375034
0.000215083
0.000150914
0.000123806
0.000110713
0.000101822
9.38396e-05
8.6694e-05
8.13863e-05
7.8654e-05
7.87652e-05
8.18285e-05
8.78062e-05
9.68794e-05
0.000109569
0.000126784
0.000149915
0.000181037
0.000223111
0.000279901
0.000356535
0.000458215
0.000585767
0.000728564
0.000841989
0.000956196
0.000733771
0.000565818
0.00336886
0.00362485
0.00386819
0.00532733
0.0044992
0.00313165
0.00188187
0.00116072
0.000825752
0.000573559
0.000398971
0.000290144
0.000215149
0.000167895
0.000139526
0.000120962
0.000107283
9.63723e-05
8.7945e-05
8.25498e-05
8.05988e-05
8.20659e-05
8.65288e-05
9.33734e-05
0.000102523
0.000114114
0.00012849
0.000146238
0.000168317
0.000196363
0.000231879
0.000276196
0.000331478
0.000400398
0.00048597
0.000603612
0.000660528
0.000620759
0.000499538
0.000395203
)
;

boundaryField
{
    floor
    {
        Cmu             0.09;
        kappa           0.41;
        E               9.8;
        type            epsilonWallFunction;
        value           nonuniform List<scalar> 
36
(
0.000325316
3.92663e-05
6.32523e-05
9.21957e-05
0.000104543
9.97226e-05
8.17112e-05
6.44727e-05
5.12703e-05
4.14079e-05
3.3943e-05
2.82086e-05
2.37558e-05
2.02227e-05
1.73266e-05
1.48486e-05
1.261e-05
1.13912e-05
8.84202e-06
8.84202e-06
2.00695e-05
3.31171e-05
5.06011e-05
0.000120935
0.000143476
0.000184249
0.000325316
0.000748357
0.000427381
0.000232095
3.92663e-05
0.000232095
3.83159e-05
0.000382567
0.000139882
0.000584868
)
;
    }
    ceiling
    {
        Cmu             0.09;
        kappa           0.41;
        E               9.8;
        type            epsilonWallFunction;
        value           nonuniform List<scalar> 
43
(
0.00336886
0.00362485
0.00386819
0.00532733
0.0044992
0.00313165
0.00188187
0.00116072
0.000825752
0.000573559
0.000398971
0.000290144
0.000215149
0.000167895
0.000139526
0.000120962
0.000107283
9.63723e-05
8.7945e-05
8.25498e-05
8.05988e-05
8.20659e-05
8.65288e-05
9.33734e-05
0.000102523
0.000114114
0.00012849
0.000146238
0.000168317
0.000196363
0.000231879
0.000276196
0.000331478
0.000400398
0.00048597
0.000603612
0.000660528
0.000620759
0.000499538
0.000395203
0.00984551
0.0172581
0.00289531
)
;
    }
    sWall
    {
        Cmu             0.09;
        kappa           0.41;
        E               9.8;
        type            epsilonWallFunction;
        value           uniform 0.00336886;
    }
    nWall
    {
        Cmu             0.09;
        kappa           0.41;
        E               9.8;
        type            epsilonWallFunction;
        value           nonuniform List<scalar> 6(0.000184249 0.000205582 0.000344827 0.000544312 0.000565818 0.000395203);
    }
    sideWalls
    {
        type            empty;
    }
    glass1
    {
        Cmu             0.09;
        kappa           0.41;
        E               9.8;
        type            epsilonWallFunction;
        value           nonuniform List<scalar> 9(0.00043326 0.00106201 0.00190874 0.00306509 0.00465258 0.00687531 0.0096623 0.0104499 0.00984551);
    }
    glass2
    {
        Cmu             0.09;
        kappa           0.41;
        E               9.8;
        type            epsilonWallFunction;
        value           nonuniform List<scalar> 2(0.00128182 0.00104485);
    }
    sun
    {
        Cmu             0.09;
        kappa           0.41;
        E               9.8;
        type            epsilonWallFunction;
        value           nonuniform List<scalar> 
14
(
0.00043326
0.000558548
0.00059727
0.000687162
0.000777562
0.000870162
0.000969894
0.00107865
0.00117335
0.00123556
0.00124263
0.00117604
0.00102317
0.00074448
)
;
    }
    Table_master
    {
        Cmu             0.09;
        kappa           0.41;
        E               9.8;
        type            epsilonWallFunction;
        value           nonuniform List<scalar> 9(0.00019845 0.000133155 9.12493e-05 6.46011e-05 4.7334e-05 3.58445e-05 2.80084e-05 2.25787e-05 1.88779e-05);
    }
    Table_slave
    {
        Cmu             0.09;
        kappa           0.41;
        E               9.8;
        type            epsilonWallFunction;
        value           nonuniform List<scalar> 9(0.000283795 0.000218578 0.000180415 0.000155288 0.000135953 0.000118396 0.000103191 8.86027e-05 7.33764e-05);
    }
    inlet
    {
        type            turbulentMixingLengthDissipationRateInlet;
        mixingLength    0.01;
        phi             phi;
        k               k;
        value           uniform 0.000471672;
    }
    outlet
    {
        type            zeroGradient;
    }
}


// ************************************************************************* //
