/*--------------------------------*- C++ -*----------------------------------*\
  =========                 |
  \\      /  F ield         | OpenFOAM: The Open Source CFD Toolbox
   \\    /   O peration     | Website:  https://openfoam.org
    \\  /    A nd           | Version:  6
     \\/     M anipulation  |
\*---------------------------------------------------------------------------*/
FoamFile
{
    version     2.0;
    format      ascii;
    class       volScalarField;
    location    "45700.0000003231908";
    object      alphat;
}
// * * * * * * * * * * * * * * * * * * * * * * * * * * * * * * * * * * * * * //

dimensions      [1 -1 -1 0 0 0 0];

internalField   nonuniform List<scalar> 
778
(
0.00104099
0.00111052
0.0011065
0.00115452
0.00119853
0.00123851
0.00127575
0.00131166
0.00134782
0.00138626
0.00142294
0.00145779
0.00149214
0.00152907
0.00156759
0.000736894
0.00105561
0.00106426
0.00103859
0.00099554
0.000937945
0.000880513
0.000827606
0.000779927
0.000737198
0.000699135
0.00066495
0.000633806
0.000604735
0.000576438
0.000546848
0.000522254
0.00047268
0.00152466
0.00300719
0.00263923
0.00304624
0.00334148
0.00365447
0.00396671
0.00425452
0.00448633
0.00462146
0.00470104
0.00466874
0.00443627
0.00385973
0.00281913
0.00171651
0.00163661
0.00156657
0.00131839
0.0022462
0.0031139
0.00362674
0.00365101
0.00288105
0.002464
0.002175
0.00195559
0.00178098
0.00163202
0.00150041
0.00137798
0.00125821
0.00115072
0.00105804
0.00119133
0.000599256
0.00193415
0.00419861
0.00311332
0.00445321
0.00497569
0.00541773
0.00581919
0.0061726
0.00647218
0.00670733
0.00693526
0.00717532
0.00739621
0.00752807
0.00744185
0.00681416
0.00498369
0.00192158
0.00166352
0.00355854
0.00496627
0.00563283
0.0051232
0.00135204
0.00117577
0.00103974
0.000933274
0.000848516
0.000780085
0.000724263
0.000678862
0.000643467
0.000707374
0.000831983
0.00131659
0.000681683
0.0023291
0.0056581
0.00297898
0.00500691
0.00578043
0.00619403
0.00649803
0.00672291
0.00689087
0.00702729
0.00722133
0.00754935
0.00802811
0.00863014
0.00923527
0.00953352
0.00895199
0.00667665
0.00191385
0.00443385
0.00659373
0.00769083
0.00796196
0.00679766
0.00153927
0.00140016
0.0012925
0.00120296
0.00112663
0.00105806
0.000993403
0.000929183
0.000859837
0.000803285
0.000832416
0.00142455
0.000750569
0.00271837
0.00748998
0.00300536
0.00475946
0.00594881
0.00630135
0.00642903
0.0064336
0.0063695
0.00631301
0.00639436
0.00671303
0.00729781
0.00812588
0.00908616
0.00997072
0.0105323
0.0105265
0.00944787
0.00961325
0.00983262
0.00986281
0.00966228
0.00904443
0.00719823
0.00621838
0.00554724
0.00500179
0.00446688
0.00394875
0.00344181
0.00293541
0.002415
0.00185523
0.00141604
0.00141302
0.0011181
0.000894505
0.00117255
0.00112607
0.0031013
0.00953998
0.00353794
0.00401336
0.00569946
0.00609065
0.00605891
0.00584047
0.00552851
0.0052713
0.0052657
0.00559933
0.00626542
0.00722538
0.00834899
0.00947112
0.0104267
0.011037
0.0111482
0.0110357
0.0108389
0.0105604
0.0102032
0.00974933
0.00908726
0.00844946
0.00787039
0.00731045
0.00670602
0.0060606
0.00537114
0.00463164
0.00383737
0.00299478
0.00223276
0.00167658
0.00130119
0.00145455
0.00251863
0.00134869
0.00349204
0.0114351
0.00471424
0.00328787
0.0051209
0.00576093
0.00568951
0.00533635
0.0048243
0.00437372
0.00436043
0.00478106
0.00554301
0.00661559
0.00783677
0.00904548
0.0100857
0.0108306
0.011173
0.0111458
0.0108998
0.0105279
0.0101028
0.00967916
0.00926973
0.00889414
0.00854143
0.00816492
0.00771041
0.00716336
0.00651551
0.00576358
0.00491054
0.00397879
0.00306954
0.00222211
0.00163663
0.00145905
0.00255153
0.00158662
0.00382777
0.012868
0.00642658
0.0031306
0.00405642
0.00510679
0.00525305
0.00496287
0.00435774
0.00374488
0.00388325
0.00443919
0.00529076
0.00639588
0.00766383
0.00892925
0.0100087
0.0107586
0.011099
0.011054
0.0107366
0.010269
0.00976648
0.00932122
0.00897817
0.00873314
0.00854219
0.00833474
0.00804634
0.00764266
0.00710756
0.00643762
0.00563945
0.00473798
0.00380359
0.00286195
0.00201391
0.00133086
0.00363802
0.00206324
0.00392902
0.0121741
0.00794978
0.00404685
0.00275036
0.00336986
0.00394284
0.00399105
0.00352366
0.00342486
0.00378044
0.00443394
0.0053541
0.00652537
0.00785384
0.00915823
0.0102342
0.0109266
0.0111697
0.0110022
0.0105424
0.00993959
0.00934191
0.00886541
0.00856308
0.00841458
0.00834724
0.00826749
0.00810179
0.00781042
0.00737741
0.00680084
0.00608855
0.00526168
0.00435816
0.00334834
0.00200983
0.00161283
0.00545027
0.0023554
0.00384959
0.00981179
0.00820753
0.0055531
0.00366859
0.00284111
0.00269086
0.00281702
0.00305358
0.00343029
0.00396453
0.00469973
0.00569984
0.00696195
0.00836223
0.00968495
0.010705
0.0112671
0.0113261
0.0109488
0.0102844
0.00951994
0.00883812
0.00837147
0.00815773
0.00813246
0.00817836
0.00817726
0.00806977
0.0078335
0.00746065
0.00695051
0.00630821
0.0055413
0.00461251
0.00322956
0.0015652
0.00279007
0.00558962
0.00239743
0.00360597
0.0083844
0.00793368
0.00635295
0.00489078
0.00393835
0.00346733
0.00336101
0.00355637
0.00391575
0.00443794
0.00521368
0.00631752
0.00770053
0.00917154
0.0104661
0.0113456
0.0116734
0.0114441
0.0107723
0.00985934
0.00894559
0.00825234
0.00790497
0.00786463
0.00797764
0.00809176
0.00809363
0.00798005
0.00775066
0.00740025
0.0069234
0.00631637
0.00555633
0.00443473
0.00249881
0.00174447
0.00345896
0.00529163
0.00236889
0.00328323
0.00755835
0.00765137
0.00672299
0.00572073
0.00496597
0.00452164
0.00436303
0.00440361
0.0046212
0.00510125
0.00596793
0.00724369
0.00877476
0.0102764
0.0114409
0.012042
0.0119935
0.011358
0.0103222
0.00916651
0.0082026
0.00765919
0.00754883
0.00764142
0.00778984
0.00788959
0.00786186
0.00773065
0.00749885
0.00715716
0.00669162
0.00608385
0.00526725
0.00372971
0.00180065
0.00221854
0.00375318
0.00486789
0.00229046
0.00299347
0.00675796
0.00730296
0.00686598
0.00622371
0.00568377
0.00532478
0.00514977
0.00509894
0.00528639
0.00589694
0.00702973
0.00857289
0.0102289
0.0116317
0.012475
0.0125974
0.0120048
0.0108638
0.00946252
0.00819592
0.00738697
0.007031
0.00698054
0.00707255
0.00720342
0.00729461
0.00727457
0.0071479
0.0069163
0.00656665
0.00608049
0.00543576
0.00453903
0.00302082
0.00177319
0.00243563
0.00391169
0.00495903
0.00223685
0.00300332
0.00670622
0.00746021
0.00694733
0.00642784
0.00600234
0.00569578
0.00549783
0.00549318
0.00594766
0.00702464
0.00862901
0.0104364
0.0120321
0.0130511
0.013278
0.0126871
0.0114118
0.00977381
0.00819279
0.00705185
0.00638002
0.00605158
0.0059514
0.00598931
0.0060899
0.00618145
0.00618198
0.00605488
0.00579752
0.00539265
0.00483509
0.00415264
0.00338655
0.00252663
0.00189721
0.00249067
0.0040725
0.00537217
0.00235797
0.00270954
0.0028195
0.00416529
0.00489765
0.00512533
0.00513056
0.00508285
0.00518185
0.00581691
0.00716132
0.00904397
0.0110678
0.0127929
0.0138574
0.014051
0.0133339
0.0118779
0.0099517
0.00811697
0.00668843
0.00572605
0.00515584
0.00486642
0.00474153
0.0047064
0.00471887
0.00473811
0.00469397
0.0045147
0.00419107
0.00372659
0.00318591
0.0026923
0.00235009
0.00217964
0.00219286
0.00278582
0.00453492
0.0054224
0.00242391
0.000965302
0.00174085
0.00267096
0.00341637
0.00428311
0.00575842
0.00792205
0.010311
0.0124707
0.0140712
0.014894
0.0148028
0.0138077
0.0120112
0.00987895
0.0078595
0.00625945
0.00517595
0.00456022
0.00423287
0.00403962
0.00390352
0.00379523
0.00370244
0.00361024
0.00348545
0.00327886
0.00298895
0.00266257
0.00239505
0.0022703
0.0023063
0.00248292
0.00282425
0.00352251
0.00532704
0.00578641
0.00245426
0.00178713
0.00247199
0.00359746
0.00560738
0.0083319
0.0110485
0.0131434
0.014639
0.0155249
0.0157479
0.0152026
0.0137866
0.0117186
0.00940125
0.00729239
0.00571154
0.00476567
0.00428191
0.00402182
0.0038494
0.00371512
0.00360549
0.00351623
0.00344104
0.00336659
0.00326984
0.00313142
0.00296585
0.00281553
0.00274129
0.00278821
0.00296
0.00323858
0.00363538
0.00424032
0.00537165
0.00609871
0.00239323
0.00323878
0.00785522
0.00724751
0.00649427
0.00824816
0.0109843
0.013284
0.014824
0.0156201
0.0157973
0.0154535
0.0145573
0.0130698
0.0110664
0.00884417
0.0068467
0.00546224
0.00471417
0.00432915
0.00408864
0.00390372
0.00375405
0.00364296
0.00357665
0.00355515
0.00356858
0.0035962
0.00360822
0.00358737
0.00355993
0.00355316
0.00359359
0.00370104
0.00387725
0.00410162
0.00434067
0.00455575
0.00469128
0.00464759
0.00231505
0.00309581
0.0059833
0.0077394
0.00989945
0.0109844
0.0121009
0.0127465
0.0128948
0.0126353
0.0120308
0.0111064
0.00988058
0.00843618
0.00697028
0.00575758
0.00495164
0.00445079
0.00412875
0.00388803
0.00368762
0.00352304
0.00340521
0.0033479
0.00336031
0.0034419
0.00357875
0.00374128
0.00388431
0.00397158
0.00403882
0.0041187
0.00423228
0.00439085
0.00459714
0.00484721
0.00513015
0.00541913
0.00566865
0.00527324
0.00238868
0.0028949
0.0024801
0.00246702
0.00253754
0.00259496
0.00251343
0.00235825
0.00217789
0.00199769
0.00182796
0.00167223
0.00153386
0.00141843
0.00133236
0.00127777
0.00124965
0.00124202
0.00124331
0.00125083
0.00126488
0.00128631
0.00131518
0.00135024
0.00138925
0.00142975
0.00146979
0.00150846
0.00154615
0.00158394
0.00162259
0.00166489
0.00171349
0.00177029
0.00183613
0.00191032
0.00198949
0.00206871
0.00215469
0.00228486
0.00230784
)
;

boundaryField
{
    floor
    {
        type            compressible::alphatWallFunction;
        Prt             0.85;
        value           nonuniform List<scalar> 
36
(
0.000219917
0.000104493
0.000149971
0.00015118
0.000147586
0.000141537
0.000133395
0.000125219
0.000117631
0.000110743
0.000104528
9.89558e-05
9.39195e-05
8.93041e-05
8.49707e-05
8.07284e-05
7.62646e-05
7.25319e-05
6.49407e-05
6.49399e-05
8.41523e-05
9.63897e-05
0.000106479
0.000127219
0.000166224
0.000159805
0.000219915
0.000239738
0.000229126
0.000219777
0.000104491
0.000219775
0.000186254
0.000266726
0.000232699
0.000265714
)
;
    }
    ceiling
    {
        type            compressible::alphatWallFunction;
        Prt             0.85;
        value           nonuniform List<scalar> 
43
(
0.000391197
0.000338829
0.00033717
0.000346148
0.000353445
0.000343132
0.000323366
0.000300202
0.00027684
0.000254614
0.000234019
0.000215541
0.000199993
0.000188318
0.000180883
0.000177047
0.000176004
0.000176187
0.000177214
0.00017913
0.00018205
0.000185983
0.000190759
0.000196071
0.000201578
0.000207012
0.000212246
0.000217331
0.000222414
0.000227591
0.00023323
0.000239686
0.000247207
0.0002559
0.000265665
0.000276055
0.000286411
0.000297537
0.00031419
0.000317305
0.000368228
0.000382049
0.000248582
)
;
    }
    sWall
    {
        type            compressible::alphatWallFunction;
        Prt             0.85;
        value           nonuniform List<scalar> 9(0.000507619 0.000477899 0.000438212 0.000402245 0.000403466 0.000366653 0.000432079 0.000414401 0.000389446);
    }
    nWall
    {
        type            compressible::alphatWallFunction;
        Prt             0.85;
        value           nonuniform List<scalar> 
14
(
0.000159358
0.000189934
0.000221983
0.000327737
0.000324049
0.000313994
0.000307212
0.000323014
0.000331197
0.000335062
0.000326901
0.000317173
0.000327154
0.000316622
)
;
    }
    sideWalls
    {
        type            empty;
    }
    glass1
    {
        type            compressible::alphatWallFunction;
        Prt             0.85;
        value           nonuniform List<scalar> 9(0.000143927 0.000209135 0.000262692 0.0003133 0.000362373 0.000409994 0.000458001 0.000498857 0.000511226);
    }
    glass2
    {
        type            compressible::alphatWallFunction;
        Prt             0.85;
        value           nonuniform List<scalar> 2(0.000282495 0.000320069);
    }
    sun
    {
        type            compressible::alphatWallFunction;
        Prt             0.85;
        value           nonuniform List<scalar> 
14
(
0.000147961
0.000157643
0.000157082
0.000163748
0.00016983
0.000175332
0.000180439
0.000185347
0.000190275
0.000195496
0.000200464
0.000205171
0.000209797
0.000214757
)
;
    }
    Table_master
    {
        type            compressible::alphatWallFunction;
        Prt             0.85;
        value           nonuniform List<scalar> 9(0.000191106 0.000166936 0.000148002 0.000132982 0.00012088 0.000111005 0.000102873 9.62032e-05 9.09657e-05);
    }
    Table_slave
    {
        type            compressible::alphatWallFunction;
        Prt             0.85;
        value           nonuniform List<scalar> 9(0.000216395 0.000197643 0.000182988 0.000170695 0.000160131 0.000150572 0.000141491 0.000132404 0.000122508);
    }
    inlet
    {
        type            fixedValue;
        value           uniform 1.94e-05;
    }
    outlet
    {
        type            zeroGradient;
    }
}


// ************************************************************************* //
