/*--------------------------------*- C++ -*----------------------------------*\
  =========                 |
  \\      /  F ield         | OpenFOAM: The Open Source CFD Toolbox
   \\    /   O peration     | Website:  https://openfoam.org
    \\  /    A nd           | Version:  6
     \\/     M anipulation  |
\*---------------------------------------------------------------------------*/
FoamFile
{
    version     2.0;
    format      ascii;
    class       volScalarField;
    location    "45700.0000003231908";
    object      epsilon;
}
// * * * * * * * * * * * * * * * * * * * * * * * * * * * * * * * * * * * * * //

dimensions      [0 2 -3 0 0 0 0];

internalField   nonuniform List<scalar> 
778
(
0.000253123
0.000306339
0.000302975
0.000344138
0.000384999
0.00042481
0.000464267
0.00050456
0.000547425
0.000595581
0.000644081
0.000692531
0.000742575
0.000799003
0.000860835
8.94817e-05
0.000262715
0.000269207
0.000250187
0.000220352
0.000184284
0.000152469
0.000126609
0.000105968
8.94932e-05
7.63384e-05
6.56821e-05
5.68816e-05
4.94104e-05
4.27962e-05
3.65405e-05
3.18315e-05
2.36073e-05
0.000797015
0.00144322
0.000286975
0.000259572
0.000261673
0.000267652
0.000276557
0.000289999
0.000310272
0.000340504
0.000379765
0.000430949
0.000499425
0.000600744
0.000786033
0.0011299
0.000979224
0.000858772
0.00051178
0.000369481
0.00029429
0.000243009
0.000204205
0.000187076
0.000154835
0.000125093
0.000100751
8.15214e-05
6.65477e-05
5.4838e-05
4.56449e-05
3.87207e-05
3.4531e-05
3.27762e-05
6.57819e-05
4.80963e-05
0.00163069
0.00407916
0.000407386
0.000242913
0.000229092
0.000231012
0.000238237
0.000250517
0.000268439
0.000292734
0.000324893
0.000367004
0.000421446
0.000495218
0.000601672
0.000724997
0.000830197
0.00158461
0.00102781
0.000512318
0.000367753
0.000294368
0.00026222
0.000551787
0.000362889
0.000250954
0.000181487
0.000136396
0.000105987
8.48241e-05
6.98523e-05
5.94876e-05
4.51531e-05
3.79975e-05
0.000108083
7.07945e-05
0.00285366
0.00877053
0.000709885
0.000240712
0.000202468
0.000200011
0.000203194
0.000209831
0.000220661
0.000237595
0.000263309
0.000300091
0.000349349
0.000412527
0.000488235
0.000560427
0.000612619
0.000824692
0.00156522
0.000728819
0.000459731
0.000358267
0.000301903
0.000291827
0.000814235
0.000612823
0.000482059
0.000388659
0.000319272
0.000264453
0.000218871
0.000179108
0.000141926
8.38611e-05
5.49396e-05
0.000148345
9.44981e-05
0.00454624
0.0158273
0.00134636
0.000258334
0.000175721
0.000166786
0.000165805
0.000167792
0.000173964
0.000187479
0.00021174
0.000248449
0.000297904
0.000359488
0.000427978
0.000489352
0.000528737
0.000582653
0.000627766
0.000483294
0.000393529
0.000331042
0.0002823
0.000248633
0.000247851
0.0002268
0.000202967
0.000181099
0.000162725
0.000146566
0.000131892
0.000118288
0.000105113
8.45246e-05
6.42697e-05
0.00010509
0.000138774
0.000159947
0.000360206
0.000319454
0.00676392
0.0248778
0.00255339
0.000318065
0.000155526
0.000137059
0.00013213
0.000130707
0.000134481
0.00014857
0.000176724
0.000218107
0.000270862
0.000334213
0.000401861
0.000462759
0.000503162
0.000521878
0.000505001
0.000438402
0.000373912
0.000315698
0.000264771
0.000223411
0.000193312
0.000169649
0.000150829
0.000135642
0.000123312
0.000112767
0.00010331
9.45346e-05
8.60674e-05
7.58933e-05
6.54096e-05
7.75921e-05
9.9694e-05
0.000208349
0.00105955
0.000548972
0.00967237
0.033636
0.0045834
0.000464987
0.000150837
0.000116339
0.000107094
0.000103298
0.000107097
0.000127916
0.000166107
0.000215855
0.000273285
0.000340054
0.000409376
0.000470539
0.0005103
0.000520617
0.000494499
0.00043778
0.000371944
0.00030754
0.000250585
0.000204464
0.000169765
0.000144565
0.000126327
0.000112737
0.000102287
9.37278e-05
8.62406e-05
7.93534e-05
7.27804e-05
6.61049e-05
6.0374e-05
6.38314e-05
7.66926e-05
0.000171754
0.00157483
0.000893586
0.0127591
0.0404051
0.00748926
0.000871305
0.000194305
0.000115399
9.74101e-05
9.14927e-05
9.87007e-05
0.000137745
0.000189276
0.000246199
0.000306965
0.000373757
0.000444745
0.00050808
0.000547481
0.000551091
0.000515878
0.000451704
0.000375601
0.000300996
0.000236487
0.000185961
0.000149307
0.000123968
0.000106692
9.45521e-05
8.5732e-05
7.88191e-05
7.29271e-05
6.75636e-05
6.2485e-05
5.76608e-05
5.40344e-05
5.5999e-05
6.9964e-05
0.000337736
0.00542199
0.00196803
0.0138279
0.0414601
0.0139303
0.00316273
0.00062996
0.000208114
0.000132791
0.000116111
0.000142634
0.000193084
0.000249368
0.000306401
0.000367253
0.000436495
0.000510931
0.000575636
0.000610911
0.000603266
0.000552311
0.00047109
0.000378531
0.00029088
0.000218189
0.000163957
0.000126726
0.000102564
8.72438e-05
7.73042e-05
7.06392e-05
6.56651e-05
6.14873e-05
5.76628e-05
5.40188e-05
5.06655e-05
4.85839e-05
5.29167e-05
9.55645e-05
0.000944072
0.0131963
0.00293431
0.0130051
0.0283721
0.0144147
0.00572571
0.0021043
0.000835062
0.000414218
0.000277355
0.000279521
0.000315018
0.000356354
0.000401803
0.000458499
0.000530649
0.000609639
0.000673659
0.000698511
0.000670641
0.00059395
0.000486803
0.000372624
0.000270556
0.000190976
0.000135622
0.000100586
7.98124e-05
6.79078e-05
6.1129e-05
5.70534e-05
5.4119e-05
5.1579e-05
4.91297e-05
4.67229e-05
4.46546e-05
4.45763e-05
5.77833e-05
0.000209437
0.00251226
0.0112528
0.00309291
0.01069
0.0193576
0.0120384
0.00630004
0.00317475
0.00167533
0.000987499
0.000679845
0.000560836
0.000518008
0.000510867
0.000531635
0.000583555
0.000662278
0.000746751
0.000804375
0.000806896
0.000744089
0.000628241
0.000486181
0.000347419
0.000233257
0.000152202
0.000101606
7.3474e-05
5.87518e-05
5.13076e-05
4.78656e-05
4.60596e-05
4.47367e-05
4.3419e-05
4.19572e-05
4.0443e-05
3.95366e-05
4.30839e-05
8.50563e-05
0.000567958
0.00286203
0.00838469
0.00298266
0.00807198
0.0137689
0.00969126
0.00593305
0.00356979
0.0022278
0.00149127
0.00109363
0.000869989
0.000744208
0.000686385
0.000690279
0.000750154
0.000843735
0.000930834
0.000967182
0.000925477
0.000805822
0.000635392
0.000452359
0.000292641
0.000176874
0.000106663
6.93286e-05
5.24383e-05
4.43194e-05
4.04724e-05
3.90437e-05
3.84481e-05
3.79953e-05
3.73941e-05
3.65756e-05
3.57418e-05
3.61532e-05
4.77577e-05
0.000172915
0.000887834
0.00283039
0.00622148
0.00269646
0.00612226
0.0101634
0.00778813
0.00531143
0.00356987
0.00246914
0.00178816
0.00136855
0.00109337
0.000926568
0.000859642
0.000886491
0.000981543
0.00109512
0.00116677
0.00114818
0.00102656
0.000822904
0.000587342
0.000368897
0.000207571
0.00011418
7.19446e-05
5.22796e-05
4.29135e-05
3.81221e-05
3.56938e-05
3.4783e-05
3.44647e-05
3.43064e-05
3.41404e-05
3.39882e-05
3.42119e-05
3.68861e-05
5.69352e-05
0.000204237
0.000882277
0.00258572
0.00557688
0.00251582
0.00617943
0.00780469
0.00679933
0.00473703
0.00336423
0.00246158
0.00186537
0.00146216
0.00119475
0.00106506
0.00107046
0.00117896
0.00132597
0.00143259
0.00143339
0.0012981
0.00105216
0.000744749
0.000457837
0.000238587
0.000130825
8.17229e-05
6.01837e-05
4.96346e-05
4.35779e-05
3.96145e-05
3.69983e-05
3.56208e-05
3.50663e-05
3.50485e-05
3.5578e-05
3.68914e-05
3.95893e-05
4.60057e-05
6.88922e-05
0.00018104
0.000672395
0.00205978
0.00488562
0.00295599
0.00454426
0.00511046
0.00418317
0.00336066
0.0026389
0.00206945
0.00164851
0.00136172
0.00124548
0.00130122
0.0014772
0.00168233
0.00181629
0.0018068
0.00163003
0.00130137
0.000913497
0.000522509
0.000279866
0.000155194
0.000102068
7.97333e-05
6.8868e-05
6.19257e-05
5.63574e-05
5.14518e-05
4.73444e-05
4.4685e-05
4.37856e-05
4.45627e-05
4.75341e-05
5.36579e-05
6.42296e-05
8.17296e-05
0.000115557
0.000208635
0.000552697
0.00188608
0.00376675
0.00319964
0.00140145
0.00143146
0.00143336
0.00135379
0.00131129
0.00142445
0.00170974
0.00204313
0.00230107
0.00239352
0.00227524
0.00196451
0.00152446
0.000982866
0.000571914
0.000314019
0.000188135
0.000136156
0.000115846
0.000106352
0.000100059
9.43512e-05
8.83087e-05
8.17971e-05
7.54813e-05
7.10305e-05
7.03723e-05
7.42589e-05
8.45869e-05
0.000104123
0.000135838
0.000183316
0.000255975
0.000387722
0.000703032
0.00205405
0.00336143
0.00332112
0.00118742
0.00171657
0.00195324
0.00230978
0.00275903
0.00316292
0.00334023
0.00330103
0.00307079
0.00267452
0.00210771
0.00149255
0.000964407
0.000568739
0.00034066
0.000234409
0.000193345
0.000178067
0.000171154
0.000166631
0.000162611
0.000158219
0.000152817
0.000146169
0.000139056
0.000133992
0.000135
0.000144458
0.000166416
0.000206663
0.000272207
0.000371788
0.000520706
0.000756004
0.00117682
0.00217814
0.00418684
0.00306562
0.0074215
0.00806989
0.00480591
0.00340259
0.00373899
0.00415264
0.00416674
0.00395507
0.00359519
0.00313601
0.00262433
0.00208049
0.0015335
0.00105213
0.000695814
0.000478296
0.000373145
0.000329615
0.000310716
0.000300034
0.000292666
0.000287618
0.000284629
0.000283011
0.000281491
0.000278753
0.000274709
0.00027229
0.000276881
0.000291899
0.000322375
0.000376024
0.000463891
0.000601862
0.000815048
0.0011485
0.00168781
0.00256579
0.00388853
0.00278628
0.0065052
0.00513232
0.00437277
0.00462587
0.00454541
0.00427685
0.00369512
0.00304774
0.00246116
0.00196694
0.00156139
0.00123429
0.000980146
0.000797497
0.00068112
0.000614237
0.000571937
0.000542498
0.000520449
0.000504343
0.000494923
0.000493551
0.000501088
0.000517238
0.000540326
0.000567531
0.000595558
0.000621441
0.000645289
0.000674164
0.000716601
0.000781625
0.000879886
0.00102644
0.00124574
0.00157833
0.00208718
0.00288891
0.00372536
0.00308443
0.00535801
0.00336883
0.00331779
0.0036138
0.00387076
0.00352941
0.00292457
0.00230898
0.0017847
0.00136851
0.00104813
0.000809001
0.000639864
0.000530469
0.000468125
0.000438085
0.000430174
0.000431577
0.000439427
0.000454318
0.000477686
0.000510488
0.000552436
0.000601895
0.00065639
0.00071348
0.000771679
0.000831307
0.000894094
0.000961374
0.00103862
0.00113234
0.00124887
0.0013939
0.00157059
0.00177547
0.00199781
0.00225723
0.00268735
0.00277659
)
;

boundaryField
{
    floor
    {
        Cmu             0.09;
        kappa           0.41;
        E               9.8;
        type            epsilonWallFunction;
        value           nonuniform List<scalar> 
36
(
0.000860835
8.94817e-05
0.000262715
0.000269207
0.000250187
0.000220352
0.000184284
0.000152469
0.000126609
0.000105968
8.94932e-05
7.63384e-05
6.56821e-05
5.68816e-05
4.94104e-05
4.27962e-05
3.65405e-05
3.18315e-05
2.36073e-05
2.36073e-05
4.80963e-05
7.07945e-05
9.44981e-05
0.000159947
0.000360206
0.000319454
0.000860835
0.0011299
0.000979224
0.000858772
8.94817e-05
0.000858772
0.00051178
0.00158461
0.00102781
0.00156522
)
;
    }
    ceiling
    {
        Cmu             0.09;
        kappa           0.41;
        E               9.8;
        type            epsilonWallFunction;
        value           nonuniform List<scalar> 
43
(
0.00535801
0.00336883
0.00331779
0.0036138
0.00387076
0.00352941
0.00292457
0.00230898
0.0017847
0.00136851
0.00104813
0.000809001
0.000639864
0.000530469
0.000468125
0.000438085
0.000430174
0.000431577
0.000439427
0.000454318
0.000477686
0.000510488
0.000552436
0.000601895
0.00065639
0.00071348
0.000771679
0.000831307
0.000894094
0.000961374
0.00103862
0.00113234
0.00124887
0.0013939
0.00157059
0.00177547
0.00199781
0.00225723
0.00268735
0.00277659
0.00454426
0.00511046
0.00118742
)
;
    }
    sWall
    {
        Cmu             0.09;
        kappa           0.41;
        E               9.8;
        type            epsilonWallFunction;
        value           nonuniform List<scalar> 9(0.0130051 0.01069 0.00807198 0.00612226 0.00617943 0.00454426 0.0074215 0.0065052 0.00535801);
    }
    nWall
    {
        Cmu             0.09;
        kappa           0.41;
        E               9.8;
        type            epsilonWallFunction;
        value           nonuniform List<scalar> 
14
(
0.000319454
0.000548972
0.000893586
0.00309291
0.00298266
0.00269646
0.00251582
0.00295599
0.00319964
0.00332112
0.00306562
0.00278628
0.00308443
0.00277659
)
;
    }
    sideWalls
    {
        type            empty;
    }
    glass1
    {
        Cmu             0.09;
        kappa           0.41;
        E               9.8;
        type            epsilonWallFunction;
        value           nonuniform List<scalar> 9(0.000253123 0.000797015 0.00163069 0.00285366 0.00454624 0.00676392 0.00967237 0.0127591 0.0138279);
    }
    glass2
    {
        Cmu             0.09;
        kappa           0.41;
        E               9.8;
        type            epsilonWallFunction;
        value           nonuniform List<scalar> 2(0.00196803 0.00293431);
    }
    sun
    {
        Cmu             0.09;
        kappa           0.41;
        E               9.8;
        type            epsilonWallFunction;
        value           nonuniform List<scalar> 
14
(
0.000253123
0.000306339
0.000302975
0.000344138
0.000384999
0.00042481
0.000464267
0.00050456
0.000547425
0.000595581
0.000644081
0.000692531
0.000742575
0.000799003
)
;
    }
    Table_master
    {
        Cmu             0.09;
        kappa           0.41;
        E               9.8;
        type            epsilonWallFunction;
        value           nonuniform List<scalar> 9(0.000551787 0.000362889 0.000250954 0.000181487 0.000136396 0.000105987 8.48241e-05 6.98523e-05 5.94876e-05);
    }
    Table_slave
    {
        Cmu             0.09;
        kappa           0.41;
        E               9.8;
        type            epsilonWallFunction;
        value           nonuniform List<scalar> 9(0.000814235 0.000612823 0.000482059 0.000388659 0.000319272 0.000264453 0.000218871 0.000179108 0.000141926);
    }
    inlet
    {
        type            turbulentMixingLengthDissipationRateInlet;
        mixingLength    0.01;
        phi             phi;
        k               k;
        value           uniform 0.000471671;
    }
    outlet
    {
        type            zeroGradient;
    }
}


// ************************************************************************* //
