/*--------------------------------*- C++ -*----------------------------------*\
  =========                 |
  \\      /  F ield         | OpenFOAM: The Open Source CFD Toolbox
   \\    /   O peration     | Website:  https://openfoam.org
    \\  /    A nd           | Version:  6
     \\/     M anipulation  |
\*---------------------------------------------------------------------------*/
FoamFile
{
    version     2.0;
    format      ascii;
    class       volScalarField;
    location    "45700.0000003231908";
    object      k;
}
// * * * * * * * * * * * * * * * * * * * * * * * * * * * * * * * * * * * * * //

dimensions      [0 2 -2 0 0 0 0];

internalField   nonuniform List<scalar> 
778
(
0.00158595
0.00180109
0.00178788
0.00194636
0.00209753
0.00223974
0.00237637
0.00251195
0.00265227
0.00280562
0.00295594
0.00310238
0.00325009
0.00341272
0.00358659
0.000792912
0.00162576
0.00165243
0.00157366
0.00144593
0.00128349
0.00113115
0.000999333
0.000887535
0.000792977
0.00071323
0.000645206
0.000586204
0.000533679
0.000484921
0.000436433
0.000398082
0.000326161
0.00340705
0.00643346
0.00268742
0.00274591
0.00288752
0.00305403
0.00323432
0.00343003
0.00364324
0.00387364
0.00412588
0.0043799
0.00459602
0.00470157
0.00459597
0.00429959
0.00390831
0.00358085
0.00253585
0.00281232
0.00295515
0.00289805
0.00266549
0.00226633
0.00190675
0.00161022
0.00137027
0.00117628
0.00101736
0.000885508
0.000774222
0.000681396
0.000615385
0.000574902
0.000864262
0.000524173
0.00549096
0.0127813
0.00347788
0.00321193
0.00329719
0.00345498
0.00363632
0.00384045
0.00407079
0.00432754
0.0046358
0.00501147
0.00545208
0.00596208
0.00653349
0.0068623
0.0062797
0.00538702
0.00403655
0.00416812
0.00417183
0.00397504
0.00357797
0.00266633
0.00201643
0.00157687
0.00127047
0.00105019
0.000887637
0.000765151
0.000672235
0.000603974
0.000551714
0.000548892
0.00116458
0.000678265
0.00797387
0.0217588
0.00449112
0.00339055
0.00334126
0.0034378
0.00354917
0.00366866
0.00380892
0.00399133
0.00425932
0.00464903
0.00517233
0.00582695
0.00655688
0.00713675
0.00722993
0.00724401
0.005343
0.00554927
0.00537465
0.00512416
0.00478605
0.00434787
0.00345595
0.0028595
0.00243669
0.00211079
0.00185143
0.00163292
0.00143944
0.00125934
0.00107839
0.000801227
0.000660177
0.00141917
0.00082227
0.0108768
0.0336348
0.00621275
0.00342479
0.00315802
0.00316671
0.00318939
0.00320975
0.00325206
0.00336109
0.00359486
0.0039897
0.00455465
0.00527882
0.00608967
0.00682034
0.00728561
0.00764545
0.00751806
0.00665388
0.00607235
0.00557798
0.00509838
0.00462923
0.00412333
0.00366608
0.00327562
0.00293808
0.00263192
0.00234849
0.00207991
0.00181905
0.00155535
0.00122246
0.000931295
0.00118963
0.00121616
0.00116784
0.00200657
0.00185213
0.0141753
0.0475982
0.0092837
0.00348982
0.00290828
0.0028225
0.00276426
0.00269952
0.00266425
0.00273454
0.00298084
0.00341463
0.00402473
0.00480008
0.00565685
0.00646431
0.00707156
0.00740909
0.00732466
0.00679002
0.00621459
0.00563655
0.00507394
0.00455601
0.00409161
0.00369606
0.0033635
0.00307411
0.00280727
0.00255211
0.0022996
0.00204273
0.00177412
0.00147174
0.00117975
0.00111347
0.00111195
0.00169961
0.00504362
0.00265722
0.0179924
0.0606046
0.0143591
0.00381935
0.00271498
0.0025292
0.00241172
0.0022941
0.00222119
0.00231152
0.00263015
0.00313938
0.00380293
0.00463336
0.00553177
0.00637031
0.0070041
0.00733054
0.00725609
0.00681894
0.00621563
0.00555477
0.00491188
0.00434292
0.00387271
0.0035006
0.0032068
0.00296188
0.00274162
0.00252959
0.00231412
0.00208778
0.00184555
0.00158323
0.00132897
0.00116267
0.00109376
0.0015455
0.00618885
0.00367699
0.0216412
0.0704798
0.0214343
0.00510201
0.00274265
0.00237171
0.00221018
0.00208216
0.00202666
0.00221968
0.00264972
0.00323093
0.00393787
0.00477632
0.00570181
0.00657678
0.00722685
0.00751679
0.00738664
0.00689795
0.00619925
0.00542745
0.00469173
0.00406456
0.0035744
0.00321225
0.00294727
0.00274063
0.00256412
0.00239609
0.00222264
0.00203602
0.0018326
0.0016136
0.00139956
0.00123589
0.00115885
0.00206982
0.0137125
0.00622463
0.0228335
0.0694948
0.032531
0.0110547
0.00406675
0.00258739
0.00223573
0.00210349
0.00219083
0.0025133
0.00300101
0.00360235
0.00433294
0.00521347
0.00618633
0.00708915
0.00771916
0.00792548
0.00766723
0.00702795
0.00616697
0.00524935
0.00440766
0.00372214
0.0032161
0.0028681
0.00263462
0.00246812
0.00233555
0.00221094
0.00207929
0.00193329
0.0017705
0.00159398
0.00142056
0.0012995
0.001353
0.00380964
0.0261866
0.00812311
0.0219185
0.0516368
0.033642
0.0174317
0.00858688
0.00475977
0.00326239
0.00273154
0.00285533
0.00321312
0.00367401
0.00424707
0.00499496
0.0059369
0.00697204
0.00788571
0.00844121
0.00848524
0.00800641
0.00712695
0.00604352
0.0049548
0.00401106
0.00328973
0.00279672
0.00248736
0.00230082
0.0021828
0.00209485
0.00201017
0.00191514
0.00180407
0.00167606
0.00153571
0.00139987
0.00133365
0.00176765
0.00817553
0.0244959
0.00841392
0.0192333
0.0394369
0.0302369
0.0195654
0.0121827
0.0079403
0.00571964
0.0046725
0.00436582
0.00440292
0.00465451
0.00514518
0.00593173
0.00697415
0.00807973
0.00895648
0.00933927
0.00909728
0.00827716
0.007065
0.00571393
0.00445987
0.00346024
0.00276706
0.00234699
0.00211372
0.00198934
0.00192166
0.00187176
0.00181797
0.00175003
0.00166396
0.00156038
0.001447
0.00134947
0.00142331
0.00307341
0.00971747
0.0205763
0.00821353
0.0159486
0.0315843
0.0266489
0.0195384
0.0139767
0.0102856
0.00802946
0.00675445
0.00605235
0.00573386
0.00578404
0.00627132
0.00719947
0.00840058
0.00954656
0.0102669
0.0103038
0.00959611
0.00829314
0.00667136
0.00505686
0.00371904
0.00279076
0.00223365
0.00195445
0.00181413
0.00174465
0.00171055
0.00168321
0.00164798
0.0015972
0.00152737
0.00143966
0.00134724
0.00130298
0.00172277
0.00433389
0.0100675
0.0170019
0.00767956
0.0132641
0.0256641
0.0233448
0.0186875
0.0145831
0.0115886
0.00954463
0.00821124
0.00730206
0.00684223
0.00695728
0.00770981
0.00895499
0.0103294
0.0113685
0.0116797
0.0110992
0.00970237
0.00779863
0.00576871
0.00402739
0.00283579
0.00219607
0.00186526
0.00170101
0.00161797
0.00157545
0.00155307
0.00153241
0.0015039
0.00146184
0.00140353
0.00133139
0.00126328
0.00128039
0.00185804
0.0045269
0.00982403
0.016248
0.00733084
0.0133465
0.0224042
0.0220482
0.0177552
0.0143898
0.0118928
0.0100837
0.00876917
0.00791987
0.00777594
0.00846667
0.00984313
0.0114771
0.0128085
0.0133451
0.0128121
0.0112776
0.00900036
0.00653165
0.00431723
0.00296598
0.0022297
0.00186349
0.0016782
0.00157745
0.00151655
0.00147657
0.00144886
0.00142267
0.00139175
0.00135236
0.00130396
0.00125184
0.00121867
0.00128813
0.00180953
0.00399628
0.00894631
0.0158277
0.00815796
0.0108737
0.0117591
0.0129211
0.0125516
0.0113742
0.0100749
0.00894728
0.00820559
0.00830802
0.00941607
0.0112702
0.0133041
0.0148641
0.0154339
0.0147664
0.0128571
0.0101695
0.0070413
0.00465442
0.00314631
0.00236085
0.00197996
0.00178768
0.00167324
0.00159028
0.00152147
0.00146242
0.0014141
0.00137279
0.00133435
0.0012995
0.0012766
0.00128397
0.0013532
0.00154964
0.00208859
0.00383191
0.00903351
0.0139616
0.00860482
0.00354677
0.00482847
0.00600191
0.00660682
0.00728472
0.00880629
0.0113209
0.0141264
0.0164974
0.0178839
0.0179497
0.0166366
0.0141602
0.0106082
0.00734019
0.0048518
0.00335153
0.00259269
0.00224473
0.0020721
0.00196341
0.00187416
0.00178779
0.00169941
0.00161199
0.00153645
0.00148328
0.00145476
0.00146542
0.00154204
0.00171486
0.00200793
0.00246199
0.00323172
0.00486026
0.0102177
0.0136245
0.00882133
0.00444431
0.00629343
0.00811086
0.0110277
0.0147106
0.0181594
0.0203772
0.0214006
0.0212747
0.0200113
0.0174653
0.0140024
0.0103804
0.00714132
0.00486817
0.00357395
0.00296493
0.00269707
0.00256261
0.00247371
0.00240067
0.0023328
0.00226405
0.00219041
0.00211316
0.00204425
0.002008
0.00202146
0.00211398
0.00232456
0.00269067
0.00324013
0.00401112
0.00512097
0.0069007
0.0105673
0.015612
0.00836977
0.0150798
0.0244452
0.0180783
0.0143861
0.017017
0.0207303
0.0228704
0.0235669
0.0230866
0.0216998
0.0196452
0.016985
0.0138223
0.0105379
0.00766231
0.00558995
0.00441019
0.00385072
0.00358277
0.00342145
0.00330189
0.00320995
0.00314564
0.00310801
0.0030903
0.003081
0.00307031
0.00306179
0.00307848
0.00314871
0.00330584
0.00359064
0.00404747
0.00471894
0.00564845
0.00689816
0.00856761
0.0107202
0.0131364
0.00784869
0.0138115
0.0170514
0.017883
0.0207842
0.021717
0.022137
0.0211416
0.0193285
0.0172045
0.015015
0.0128579
0.0107853
0.00888226
0.00728347
0.00611791
0.00538794
0.00492919
0.00462374
0.00439483
0.00421336
0.00407969
0.00400537
0.00400178
0.00407331
0.00421345
0.00440318
0.00461179
0.00480002
0.00494577
0.00509773
0.00530739
0.00561889
0.00607237
0.0067111
0.00759206
0.00879196
0.0103917
0.0125046
0.0136965
0.00838894
0.0121359
0.00890678
0.00881659
0.0093335
0.00977085
0.00918762
0.00810546
0.00692398
0.00583172
0.00488582
0.00409013
0.00344176
0.0029436
0.00259765
0.00238974
0.00228622
0.00225855
0.00226343
0.00229084
0.00234242
0.00242221
0.00253197
0.00266885
0.00282573
0.00299356
0.0031644
0.00333388
0.0035032
0.00367716
0.0038592
0.00406317
0.00430401
0.00459442
0.0049434
0.00535247
0.0058078
0.00628244
0.00681555
0.00765829
0.0078241
)
;

boundaryField
{
    floor
    {
        type            kqRWallFunction;
        value           nonuniform List<scalar> 
36
(
0.00358659
0.000792912
0.00162576
0.00165243
0.00157366
0.00144593
0.00128349
0.00113115
0.000999333
0.000887535
0.000792977
0.00071323
0.000645206
0.000586204
0.000533679
0.000484921
0.000436433
0.000398082
0.000326161
0.000326161
0.000524173
0.000678265
0.00082227
0.00116784
0.00200657
0.00185213
0.00358659
0.00429959
0.00390831
0.00358085
0.000792912
0.00358085
0.00253585
0.00538702
0.00403655
0.005343
)
;
    }
    ceiling
    {
        type            kqRWallFunction;
        value           nonuniform List<scalar> 
43
(
0.0121359
0.00890678
0.00881659
0.0093335
0.00977085
0.00918762
0.00810546
0.00692398
0.00583172
0.00488582
0.00409013
0.00344176
0.0029436
0.00259765
0.00238974
0.00228622
0.00225855
0.00226343
0.00229084
0.00234242
0.00242221
0.00253197
0.00266885
0.00282573
0.00299356
0.0031644
0.00333388
0.0035032
0.00367716
0.0038592
0.00406317
0.00430401
0.00459442
0.0049434
0.00535247
0.0058078
0.00628244
0.00681555
0.00765829
0.0078241
0.0108737
0.0117591
0.00444431
)
;
    }
    sWall
    {
        type            kqRWallFunction;
        value           nonuniform List<scalar> 9(0.0219185 0.0192333 0.0159486 0.0132641 0.0133465 0.0108737 0.0150798 0.0138115 0.0121359);
    }
    nWall
    {
        type            kqRWallFunction;
        value           nonuniform List<scalar> 
14
(
0.00185213
0.00265722
0.00367699
0.00841392
0.00821353
0.00767956
0.00733084
0.00815796
0.00860482
0.00882133
0.00836977
0.00784869
0.00838894
0.0078241
)
;
    }
    sideWalls
    {
        type            empty;
    }
    glass1
    {
        type            kqRWallFunction;
        value           nonuniform List<scalar> 9(0.00158595 0.00340705 0.00549096 0.00797387 0.0108768 0.0141753 0.0179924 0.0216412 0.0228335);
    }
    glass2
    {
        type            kqRWallFunction;
        value           nonuniform List<scalar> 2(0.00622463 0.00812311);
    }
    sun
    {
        type            kqRWallFunction;
        value           nonuniform List<scalar> 
14
(
0.00158595
0.00180109
0.00178788
0.00194636
0.00209753
0.00223974
0.00237637
0.00251195
0.00265227
0.00280562
0.00295594
0.00310238
0.00325009
0.00341272
)
;
    }
    Table_master
    {
        type            kqRWallFunction;
        value           nonuniform List<scalar> 9(0.00266633 0.00201643 0.00157687 0.00127047 0.00105019 0.000887637 0.000765151 0.000672235 0.000603974);
    }
    Table_slave
    {
        type            kqRWallFunction;
        value           nonuniform List<scalar> 9(0.00345595 0.0028595 0.00243669 0.00211079 0.00185143 0.00163292 0.00143944 0.00125934 0.00107839);
    }
    inlet
    {
        type            turbulentIntensityKineticEnergyInlet;
        intensity       0.05;
        value           uniform 0.0009375;
    }
    outlet
    {
        type            zeroGradient;
    }
}


// ************************************************************************* //
