/*--------------------------------*- C++ -*----------------------------------*\
  =========                 |
  \\      /  F ield         | OpenFOAM: The Open Source CFD Toolbox
   \\    /   O peration     | Website:  https://openfoam.org
    \\  /    A nd           | Version:  6
     \\/     M anipulation  |
\*---------------------------------------------------------------------------*/
FoamFile
{
    version     2.0;
    format      ascii;
    class       volScalarField;
    location    "45700.0000003231908";
    object      nut;
}
// * * * * * * * * * * * * * * * * * * * * * * * * * * * * * * * * * * * * * //

dimensions      [0 2 -1 0 0 0 0];

internalField   nonuniform List<scalar> 
778
(
0.000894311
0.000953043
0.000949542
0.000990732
0.00102849
0.00106278
0.00109472
0.00112551
0.00115652
0.00118949
0.00122094
0.00125081
0.00128024
0.00131188
0.00134489
0.000632351
0.000905464
0.000912862
0.000890837
0.000853918
0.000804526
0.000755275
0.000709903
0.000669016
0.000632374
0.000599734
0.000570418
0.000543711
0.00051878
0.000494515
0.00046914
0.000448054
0.000405565
0.00131079
0.00258107
0.00226501
0.00261431
0.00286769
0.00313631
0.00340427
0.00365125
0.00385014
0.00396605
0.00403422
0.00400632
0.00380659
0.0033116
0.00241855
0.00147251
0.00140391
0.00134381
0.00113085
0.00192655
0.00267071
0.00311053
0.00313134
0.00247099
0.0021133
0.00186545
0.00167728
0.00152753
0.00139978
0.0012869
0.0011819
0.00107919
0.000987021
0.000907554
0.00102194
0.000514139
0.00166406
0.00360432
0.00267218
0.0038223
0.00427091
0.00465049
0.00499524
0.00529871
0.00555591
0.00575773
0.00595321
0.00615889
0.00634784
0.00646012
0.00638517
0.00584583
0.00427503
0.00164823
0.00142676
0.00305199
0.0042593
0.00483097
0.0043939
0.00115958
0.0010084
0.000891744
0.000800433
0.000727742
0.000669054
0.00062118
0.000582243
0.000551891
0.000606712
0.000713612
0.00112934
0.000584847
0.0020053
0.00485831
0.00255719
0.00429817
0.00496255
0.00531802
0.0055794
0.00577281
0.00591725
0.00603448
0.00620094
0.00648209
0.00689216
0.00740752
0.00792517
0.00817946
0.00767928
0.00572677
0.00164149
0.00380271
0.00565508
0.006596
0.00682855
0.00583003
0.00132016
0.00120085
0.00110852
0.00103173
0.000966266
0.000907456
0.000852
0.000796921
0.000737446
0.000688958
0.000713967
0.00122192
0.000643944
0.00234205
0.00643298
0.00258018
0.00408629
0.00510797
0.00541128
0.00552154
0.00552604
0.00547142
0.00542314
0.00549295
0.00576615
0.00626723
0.0069764
0.00779844
0.00855527
0.00903513
0.00902898
0.00810319
0.00824482
0.00843293
0.00845888
0.00828697
0.00775713
0.00617374
0.00533338
0.00475776
0.00428995
0.00383117
0.00338678
0.00295198
0.00251765
0.0020713
0.00159121
0.00121454
0.00121201
0.000959217
0.000767422
0.001006
0.000966443
0.00267369
0.00819616
0.00303785
0.00344613
0.00489454
0.00523123
0.00520473
0.00501783
0.00475042
0.0045298
0.00452505
0.00481127
0.00538229
0.00620464
0.00716666
0.00812704
0.00894468
0.00946681
0.00956149
0.00946482
0.00929604
0.0090573
0.0087511
0.00836197
0.00779419
0.00724719
0.00675054
0.00627028
0.00575185
0.00519826
0.00460689
0.00397259
0.00329133
0.00256863
0.00191506
0.00143807
0.00111621
0.00124781
0.00216076
0.00115757
0.00301224
0.00982765
0.00404862
0.00282346
0.00439813
0.00494859
0.00488803
0.00458539
0.00414608
0.00375934
0.00374813
0.00410931
0.00476281
0.00568181
0.0067274
0.00776191
0.00865209
0.00928958
0.00958258
0.00955916
0.00934837
0.00902971
0.0086653
0.00830212
0.00795104
0.00762894
0.00732642
0.00700347
0.0066136
0.00614434
0.00558862
0.00494363
0.00421192
0.00341271
0.00263283
0.001906
0.0014039
0.00125162
0.00218892
0.00136173
0.00330358
0.0110646
0.00552106
0.00268878
0.00348417
0.00438698
0.0045133
0.00426466
0.00374529
0.00321919
0.00333847
0.00381602
0.00454649
0.00549339
0.00657896
0.0076619
0.00858563
0.0092275
0.00951895
0.00948045
0.0092086
0.00880793
0.00837725
0.00799553
0.00770137
0.00749122
0.00732742
0.00714945
0.00690201
0.0065557
0.00609665
0.00552195
0.00483727
0.00406399
0.00326251
0.00245485
0.0017275
0.00114164
0.00312117
0.00177189
0.00339336
0.0104838
0.00683718
0.00347755
0.00236279
0.0028951
0.00338776
0.00342965
0.00302858
0.00294432
0.00325039
0.00381175
0.00460091
0.00560423
0.00674136
0.00785747
0.00877818
0.00937096
0.00957935
0.00943618
0.00904242
0.00852588
0.00801356
0.00760501
0.00734574
0.00721835
0.00716053
0.00709206
0.00694984
0.00669983
0.00632831
0.00583367
0.00522262
0.00451331
0.00373828
0.00287211
0.00172402
0.00138358
0.00467678
0.00202386
0.00332468
0.00845805
0.00706645
0.00477633
0.0031536
0.00244172
0.00231252
0.00242115
0.00262507
0.00294958
0.00340911
0.00404026
0.00489743
0.00597798
0.00717612
0.00830775
0.00918074
0.00966231
0.00971334
0.00939068
0.00882166
0.00816653
0.00758197
0.00718177
0.00699841
0.00697667
0.00701595
0.00701491
0.00692259
0.00671982
0.00639989
0.00596221
0.00541117
0.00475327
0.00395654
0.00277029
0.00134271
0.00239447
0.00479921
0.00206003
0.00311438
0.00723098
0.00683517
0.00546863
0.00420748
0.00338701
0.00298156
0.00289022
0.00305871
0.00336812
0.00381665
0.00448157
0.00542656
0.00660974
0.00786793
0.00897551
0.0097286
0.0100102
0.00981474
0.00923994
0.00845784
0.00767454
0.00708002
0.00678201
0.0067473
0.00684412
0.00694189
0.00694336
0.0068458
0.00664892
0.00634822
0.00593908
0.0054183
0.00476628
0.00380414
0.00214355
0.00149681
0.00296945
0.00454455
0.00203563
0.002836
0.00652059
0.0065951
0.00579085
0.00492505
0.00427393
0.00389098
0.00375448
0.00378945
0.00397596
0.00438669
0.00512785
0.0062186
0.00752758
0.00881179
0.00980873
0.0103246
0.0102847
0.00974179
0.00885498
0.00786447
0.00703785
0.00657164
0.0064768
0.00655606
0.00668321
0.00676862
0.00674469
0.006632
0.00643305
0.00613983
0.00574039
0.00521896
0.00451841
0.00319946
0.00154477
0.001904
0.00322281
0.0041816
0.00196843
0.00258633
0.00583251
0.00629784
0.00591743
0.00536156
0.00489503
0.00458515
0.00443404
0.004389
0.00454737
0.00506762
0.0060347
0.00735298
0.00876863
0.00996927
0.0106929
0.0108005
0.0102955
0.0093194
0.00811885
0.00703274
0.00633867
0.00603304
0.0059895
0.00606822
0.0061803
0.00625836
0.00624102
0.00613223
0.00593344
0.0056334
0.00521628
0.00466314
0.00389385
0.00259147
0.00152131
0.00209045
0.00335923
0.0042604
0.00192252
0.00259434
0.00578823
0.0064346
0.00598943
0.00553947
0.00517123
0.00490585
0.00473331
0.00472499
0.00510945
0.00602695
0.00739621
0.00894068
0.0103067
0.011182
0.0113809
0.0108791
0.00978932
0.00838645
0.00703081
0.00605182
0.0054751
0.00519299
0.00510678
0.00513908
0.00522519
0.00530356
0.00530389
0.00519473
0.00497385
0.00462644
0.00414807
0.00356258
0.00290536
0.00216767
0.00162781
0.00213762
0.00349711
0.00461487
0.00202629
0.00234171
0.00243519
0.00359198
0.00421908
0.00441225
0.00441435
0.00437052
0.00445015
0.0049877
0.00613238
0.00773868
0.00946888
0.010948
0.0118655
0.0120392
0.0114321
0.010189
0.00853993
0.00696663
0.00574078
0.00491463
0.00442502
0.00417641
0.00406903
0.00403869
0.00404921
0.00406556
0.00402756
0.00387365
0.00359592
0.00319737
0.00273348
0.00231001
0.00201645
0.00187028
0.00188175
0.00239104
0.00389399
0.00465746
0.00208269
0.000807853
0.00146582
0.00226187
0.00290186
0.00364224
0.00489983
0.00674644
0.00879042
0.0106449
0.0120262
0.0127447
0.0126799
0.0118376
0.0103046
0.00847864
0.00674673
0.00537352
0.00444333
0.00391461
0.00363346
0.00346744
0.00335049
0.0032574
0.00317761
0.00309835
0.00299113
0.00281376
0.00256494
0.00228487
0.00205535
0.0019484
0.00197943
0.00213116
0.00242431
0.00302403
0.00457446
0.00497005
0.00210875
0.00149709
0.00207661
0.00303124
0.00473852
0.0070591
0.00938333
0.0111881
0.0124867
0.0132654
0.0134756
0.0130252
0.0118228
0.0100556
0.00807024
0.00626114
0.00490417
0.00409202
0.00367658
0.0034532
0.0033051
0.00318975
0.00309557
0.00301885
0.00295419
0.00289015
0.00280695
0.00268803
0.00254585
0.00241684
0.0023532
0.00239367
0.0025414
0.00278088
0.00312193
0.00364181
0.00461405
0.00523927
0.00205661
0.00275767
0.0066644
0.00612042
0.0054742
0.00697032
0.00931384
0.0112978
0.0126384
0.0133426
0.0135138
0.0132354
0.0124798
0.0112129
0.0094991
0.00759397
0.0058798
0.00469114
0.00404873
0.00371806
0.00351151
0.00335271
0.0032242
0.00312882
0.00307187
0.00305337
0.00306482
0.00308841
0.00309857
0.00308051
0.00305685
0.00305102
0.00308582
0.00317829
0.00332993
0.00352305
0.00372886
0.00391417
0.00403114
0.00399399
0.00198981
0.00263916
0.00509856
0.00658213
0.00840455
0.00933833
0.0103123
0.0108865
0.0110321
0.010824
0.0103157
0.00952953
0.00848189
0.00724434
0.00598674
0.00494567
0.00425355
0.00382336
0.00354675
0.00334001
0.00316792
0.00302662
0.00292547
0.00287631
0.002887
0.00295707
0.00307457
0.00321408
0.00333679
0.00341158
0.00346921
0.00353776
0.00363534
0.00377166
0.00394909
0.00416425
0.00440773
0.00465647
0.00487132
0.00453202
0.00205344
0.00247389
0.00211936
0.0021086
0.00216954
0.00221979
0.00215252
0.00202179
0.00186867
0.00171503
0.00156989
0.00143649
0.00131782
0.00121875
0.00114483
0.00109795
0.00107379
0.00106723
0.00106836
0.00107484
0.00108695
0.00110541
0.00113025
0.0011604
0.00119394
0.00122873
0.00126312
0.00129631
0.00132865
0.00136108
0.00139426
0.00143059
0.00147236
0.0015212
0.00157784
0.00164168
0.00170983
0.00177806
0.00185212
0.00196418
0.00198427
)
;

boundaryField
{
    floor
    {
        type            nutkWallFunction;
        Cmu             0.09;
        kappa           0.41;
        E               9.8;
        value           nonuniform List<scalar> 
36
(
0.000160578
7.63796e-05
0.000109533
0.000110413
0.000107791
0.000103379
9.74408e-05
9.14768e-05
8.59417e-05
8.09175e-05
7.63835e-05
7.23178e-05
6.86432e-05
6.52754e-05
6.21132e-05
5.90172e-05
5.57594e-05
5.30353e-05
4.74959e-05
4.74958e-05
6.15221e-05
7.04544e-05
7.78187e-05
9.29523e-05
0.000121415
0.000116763
0.000160578
0.000175022
0.000167276
0.000160455
7.63796e-05
0.000160455
0.000135999
0.000194686
0.000169859
0.000193935
)
;
    }
    ceiling
    {
        type            nutkWallFunction;
        Cmu             0.09;
        kappa           0.41;
        E               9.8;
        value           nonuniform List<scalar> 
43
(
0.000284339
0.000246291
0.000245129
0.000251722
0.000257149
0.00024991
0.00023575
0.000219028
0.000202089
0.00018593
0.00017093
0.000157457
0.000146112
0.000137589
0.00013216
0.000129358
0.000128598
0.000128732
0.000129485
0.000130888
0.000133025
0.000135902
0.000139394
0.000143275
0.000147297
0.000151264
0.000155084
0.000158793
0.000162501
0.000166279
0.000170397
0.000175114
0.000180611
0.000186967
0.000194109
0.000201711
0.000209292
0.000217437
0.000229624
0.000231935
0.000270426
0.000280415
0.000177579
)
;
    }
    sWall
    {
        type            nutkWallFunction;
        Cmu             0.09;
        kappa           0.41;
        E               9.8;
        value           nonuniform List<scalar> 9(0.000373892 0.000352076 0.000322962 0.000296601 0.000297449 0.000270515 0.00031441 0.000301932 0.000284441);
    }
    nWall
    {
        type            nutkWallFunction;
        Cmu             0.09;
        kappa           0.41;
        E               9.8;
        value           nonuniform List<scalar> 
14
(
0.000116771
0.000139113
0.000162514
0.000239962
0.000237281
0.000229952
0.000225014
0.000236531
0.000242484
0.000245308
0.000239376
0.000232306
0.000239636
0.00023197
)
;
    }
    sideWalls
    {
        type            empty;
    }
    glass1
    {
        type            nutkWallFunction;
        Cmu             0.09;
        kappa           0.41;
        E               9.8;
        value           nonuniform List<scalar> 9(0.000108248 0.000156884 0.000196739 0.000234354 0.000270798 0.000306149 0.000341764 0.000372084 0.00038138);
    }
    glass2
    {
        type            nutkWallFunction;
        Cmu             0.09;
        kappa           0.41;
        E               9.8;
        value           nonuniform List<scalar> 2(0.000208514 0.000236179);
    }
    sun
    {
        type            nutkWallFunction;
        Cmu             0.09;
        kappa           0.41;
        E               9.8;
        value           nonuniform List<scalar> 
14
(
0.000108207
0.000115178
0.000114764
0.000119626
0.000124063
0.000128077
0.000131801
0.00013538
0.000138974
0.000142782
0.000146403
0.000149834
0.000153205
0.000156819
)
;
    }
    Table_master
    {
        type            nutkWallFunction;
        Cmu             0.09;
        kappa           0.41;
        E               9.8;
        value           nonuniform List<scalar> 9(0.000139318 0.000121699 0.000107896 9.69464e-05 8.81246e-05 8.09258e-05 7.49975e-05 7.01353e-05 6.63175e-05);
    }
    Table_slave
    {
        type            nutkWallFunction;
        Cmu             0.09;
        kappa           0.41;
        E               9.8;
        value           nonuniform List<scalar> 9(0.000157751 0.000144081 0.000133398 0.000124436 0.000116736 0.000109767 0.000103147 9.65224e-05 8.93081e-05);
    }
    inlet
    {
        type            calculated;
        value           uniform 0.000167705;
    }
    outlet
    {
        type            calculated;
        value           nonuniform List<scalar> 2(0.00275767 0.0066644);
    }
}


// ************************************************************************* //
