/*--------------------------------*- C++ -*----------------------------------*\
  =========                 |
  \\      /  F ield         | OpenFOAM: The Open Source CFD Toolbox
   \\    /   O peration     | Website:  https://openfoam.org
    \\  /    A nd           | Version:  6
     \\/     M anipulation  |
\*---------------------------------------------------------------------------*/
FoamFile
{
    version     2.0;
    format      ascii;
    class       volScalarField;
    location    "21100";
    object      k;
}
// * * * * * * * * * * * * * * * * * * * * * * * * * * * * * * * * * * * * * //

dimensions      [0 2 -2 0 0 0 0];

internalField   nonuniform List<scalar> 
778
(
0.00158596
0.00180111
0.0017879
0.00194636
0.00209751
0.0022397
0.0023763
0.00251185
0.00265215
0.00280548
0.00295578
0.00310221
0.00324993
0.00341257
0.00358646
0.000792858
0.00162591
0.00165258
0.00157378
0.00144602
0.00128354
0.00113117
0.000999348
0.000887557
0.000793007
0.000713261
0.000645236
0.00058623
0.0005337
0.000484938
0.000436446
0.00039809
0.000326167
0.00340709
0.00643354
0.00268743
0.00274589
0.00288749
0.00305398
0.00323424
0.00342992
0.0036431
0.00387346
0.00412568
0.00437972
0.00459587
0.00470148
0.00459594
0.00429956
0.00390826
0.00358083
0.00253604
0.00281254
0.00295544
0.00289836
0.00266576
0.0022665
0.00190684
0.00161026
0.00137028
0.00117628
0.00101737
0.00088552
0.000774237
0.000681413
0.000615406
0.000574931
0.000864293
0.000524208
0.00549102
0.0127815
0.00347791
0.0032119
0.00329715
0.00345492
0.00363623
0.00384034
0.00407064
0.00432736
0.0046356
0.0050113
0.00545198
0.00596209
0.00653367
0.00686262
0.00627993
0.0053871
0.00403645
0.00416811
0.00417196
0.00397529
0.0035783
0.00266671
0.00201673
0.00157707
0.0012706
0.00105027
0.00088768
0.00076518
0.000672259
0.000603997
0.000551732
0.000548914
0.00116455
0.000678346
0.00797398
0.0217593
0.0044912
0.00339051
0.00334121
0.00343774
0.00354909
0.00366856
0.00380879
0.00399117
0.00425914
0.00464886
0.00517223
0.00582698
0.00655707
0.00713708
0.00723022
0.00724444
0.00534273
0.00554876
0.00537431
0.00512399
0.00478601
0.00434795
0.00345611
0.00285973
0.00243693
0.002111
0.0018516
0.00163306
0.00143955
0.00125944
0.00107848
0.000801318
0.000660244
0.00141906
0.000822452
0.010877
0.0336356
0.00621296
0.00342477
0.00315797
0.00316665
0.00318932
0.00320966
0.00325196
0.00336097
0.00359472
0.00398956
0.00455459
0.00527892
0.00608991
0.00682067
0.00728578
0.00764533
0.00751757
0.00665344
0.00607197
0.00557771
0.00509825
0.00462924
0.00412344
0.00366623
0.00327577
0.00293822
0.00263203
0.00234857
0.00207998
0.00181913
0.00155544
0.00122257
0.000931457
0.00118971
0.00121633
0.00116806
0.00200357
0.00185296
0.0141756
0.0475993
0.00928417
0.00348983
0.00290825
0.00282245
0.00276421
0.00269946
0.00266418
0.00273446
0.00298074
0.00341457
0.00402479
0.00480039
0.00565733
0.00646488
0.00707189
0.00740911
0.0073244
0.00678968
0.00621427
0.00563632
0.00507382
0.004556
0.00409167
0.00369614
0.00336357
0.00307417
0.00280732
0.00255215
0.00229965
0.0020428
0.00177421
0.00147183
0.00117992
0.00111365
0.00111225
0.00169721
0.00503291
0.00265949
0.0179928
0.0606058
0.0143599
0.00381945
0.00271497
0.00252917
0.00241169
0.00229406
0.00222115
0.00231146
0.00263009
0.00313939
0.00380316
0.00463399
0.00553262
0.00637123
0.00700481
0.0073309
0.00725614
0.00681884
0.0062155
0.00555468
0.00491184
0.00434293
0.00387275
0.00350062
0.00320681
0.00296188
0.0027416
0.00252957
0.00231413
0.00208783
0.00184564
0.00158329
0.00132903
0.00116302
0.0010942
0.00154358
0.00617665
0.00367756
0.0216416
0.0704806
0.0214355
0.00510237
0.00274272
0.00237173
0.00221018
0.00208215
0.00202664
0.00221963
0.00264966
0.00323099
0.00393827
0.0047772
0.0057031
0.00657816
0.00722799
0.00751753
0.00738704
0.00689817
0.00619941
0.0054276
0.00469186
0.00406465
0.00357445
0.00321225
0.00294723
0.00274058
0.00256404
0.002396
0.00222257
0.00203602
0.00183264
0.0016136
0.00139949
0.0012366
0.00116018
0.00206637
0.0136093
0.006213
0.0228337
0.069494
0.0325323
0.0110561
0.00406736
0.00258755
0.00223578
0.00210351
0.00219085
0.00251324
0.00300092
0.00360245
0.00433352
0.00521469
0.00618806
0.00709096
0.00772065
0.00792653
0.00766795
0.00702854
0.00616753
0.00524986
0.00440805
0.00372238
0.00321621
0.00286813
0.00263459
0.00246806
0.00233543
0.00221078
0.00207912
0.00193315
0.00177039
0.00159381
0.00142044
0.00130145
0.0013607
0.00380884
0.025863
0.00813701
0.0219184
0.0516351
0.0336423
0.0174332
0.00858819
0.00476057
0.00326277
0.00273169
0.00285544
0.00321311
0.00367398
0.00424731
0.00499581
0.00593852
0.00697416
0.00788779
0.00844284
0.00848641
0.00800739
0.00712799
0.00604462
0.00495581
0.00401179
0.00329016
0.00279694
0.00248747
0.00230085
0.00218279
0.00209476
0.00200999
0.00191489
0.00180376
0.00167562
0.00153505
0.0013993
0.00133664
0.00179738
0.00843177
0.0240468
0.00840063
0.019233
0.039435
0.0302366
0.0195662
0.0121838
0.00794128
0.00572037
0.004673
0.00436615
0.00440307
0.00465466
0.0051457
0.005933
0.00697618
0.00808206
0.00895847
0.00934061
0.00909828
0.00827835
0.00706663
0.00571577
0.00446147
0.00346127
0.00276767
0.00234738
0.00211402
0.00198965
0.0019218
0.0018718
0.00181791
0.0017499
0.0016637
0.00155985
0.00144589
0.00134797
0.00142824
0.00321929
0.00990981
0.019956
0.00817135
0.0159479
0.0315828
0.0266483
0.0195386
0.0139773
0.0102863
0.00803012
0.00675519
0.00605283
0.00573418
0.00578447
0.00627228
0.00720124
0.00840287
0.00954859
0.010268
0.0103041
0.00959656
0.00829456
0.00667378
0.00505944
0.00372103
0.00279172
0.00223448
0.00195518
0.00181477
0.00174514
0.00171089
0.00168343
0.00164818
0.00159748
0.00152777
0.00143991
0.00134678
0.00129889
0.00170027
0.0043436
0.0101282
0.0166548
0.00763598
0.0132635
0.0256634
0.0233443
0.0186875
0.0145834
0.011589
0.00954511
0.00821164
0.00730237
0.00684261
0.00695806
0.00771133
0.00895712
0.0103313
0.011369
0.0116786
0.0110975
0.00970194
0.00780038
0.00577175
0.00402959
0.00283732
0.00219703
0.00186625
0.00170214
0.00161909
0.00157625
0.00155356
0.00153267
0.00150416
0.00146243
0.00140479
0.00133322
0.00126379
0.00126846
0.00177426
0.00433944
0.00970519
0.0165397
0.00736793
0.0133472
0.0224031
0.0220479
0.0177552
0.0143899
0.011893
0.0100839
0.00876927
0.00792004
0.00777652
0.00846803
0.00984519
0.0114788
0.0128083
0.0133418
0.0128069
0.0112728
0.00899907
0.00653318
0.00431875
0.00296644
0.00222971
0.00186388
0.00167942
0.00157933
0.00151856
0.00147807
0.00144949
0.00142264
0.00139148
0.00135241
0.00130493
0.00125406
0.00122067
0.00127973
0.00173727
0.00378937
0.00891095
0.0155401
0.00835189
0.0108741
0.0117589
0.0129209
0.0125515
0.011374
0.0100746
0.00894692
0.00820532
0.00830831
0.00941737
0.0112724
0.0133058
0.0148631
0.0154282
0.0147563
0.0128463
0.0101616
0.00703883
0.00465228
0.00314355
0.00235806
0.00197818
0.00178771
0.00167532
0.00159397
0.0015257
0.00146578
0.00141543
0.00137247
0.00133299
0.00129779
0.00127591
0.00128754
0.00136645
0.00157398
0.00210186
0.00377568
0.00909994
0.013761
0.00865764
0.0035463
0.0048278
0.00600086
0.0066052
0.00728256
0.00880531
0.0113215
0.0141284
0.0164988
0.0178818
0.0179413
0.0166211
0.0141411
0.0105939
0.00732814
0.00484267
0.00334346
0.00258588
0.00224013
0.00207055
0.00196538
0.00187973
0.00179654
0.00171002
0.00162192
0.00154235
0.00148497
0.00145236
0.00145908
0.00153472
0.00171644
0.00203544
0.00253191
0.00335033
0.00501203
0.0102483
0.0137291
0.00887476
0.00444413
0.00629122
0.008107
0.0110224
0.0147057
0.0181554
0.0203757
0.0213997
0.0212705
0.0200001
0.0174472
0.0139776
0.0103532
0.00711603
0.00484636
0.00355757
0.00295464
0.00269302
0.00256442
0.00248059
0.00241189
0.00234807
0.00228337
0.00221308
0.00213626
0.00206157
0.0020154
0.00201689
0.00209514
0.00229382
0.00266084
0.00323499
0.00405644
0.00522992
0.00704883
0.0103844
0.0150332
0.00822845
0.0150799
0.0244552
0.0180783
0.0143798
0.0170074
0.0207205
0.0228616
0.0235601
0.0230815
0.021694
0.0196322
0.0169655
0.0138006
0.0105104
0.00763357
0.00556909
0.00440372
0.00385812
0.00360121
0.00344694
0.00332968
0.00323558
0.0031664
0.00312394
0.00310426
0.00309715
0.00309091
0.0030829
0.00309409
0.00315329
0.00329387
0.00356027
0.00400533
0.00468333
0.00564853
0.00697099
0.00874875
0.010951
0.0132345
0.00785875
0.0138113
0.0170525
0.0178773
0.0207776
0.0217071
0.0221261
0.0211311
0.0193193
0.0171969
0.0150079
0.0128485
0.0107653
0.0088469
0.00724031
0.00607681
0.00536212
0.00493122
0.00465207
0.00444274
0.00427091
0.00413556
0.00404912
0.00402624
0.00407674
0.00420068
0.00438551
0.0046051
0.00482141
0.00499277
0.00515207
0.00535713
0.00566077
0.00611175
0.00676189
0.00767632
0.00894047
0.010639
0.0128275
0.0136289
0.00882012
0.0121351
0.00890707
0.00881661
0.00933362
0.00977106
0.00918802
0.00810502
0.00692062
0.00582296
0.00486997
0.00406751
0.00341544
0.00291855
0.00257842
0.00237869
0.00228252
0.00225797
0.00226462
0.00229064
0.00233768
0.00241106
0.00251499
0.00264945
0.00280931
0.00298584
0.00316982
0.00335463
0.00353865
0.00372688
0.00392107
0.00413297
0.00437956
0.0046767
0.00503709
0.00546654
0.00595517
0.00647205
0.00701897
0.00780717
0.00806606
)
;

boundaryField
{
    floor
    {
        type            kqRWallFunction;
        value           nonuniform List<scalar> 
36
(
0.00358646
0.000792858
0.00162591
0.00165258
0.00157378
0.00144602
0.00128354
0.00113117
0.000999348
0.000887557
0.000793007
0.000713261
0.000645236
0.00058623
0.0005337
0.000484938
0.000436446
0.00039809
0.000326167
0.000326167
0.000524208
0.000678346
0.000822452
0.00116806
0.00200357
0.00185296
0.00358646
0.00429956
0.00390826
0.00358083
0.000792858
0.00358083
0.00253604
0.0053871
0.00403645
0.00534273
)
;
    }
    ceiling
    {
        type            kqRWallFunction;
        value           nonuniform List<scalar> 
43
(
0.0121351
0.00890707
0.00881661
0.00933362
0.00977106
0.00918802
0.00810502
0.00692062
0.00582296
0.00486997
0.00406751
0.00341544
0.00291855
0.00257842
0.00237869
0.00228252
0.00225797
0.00226462
0.00229064
0.00233768
0.00241106
0.00251499
0.00264945
0.00280931
0.00298584
0.00316982
0.00335463
0.00353865
0.00372688
0.00392107
0.00413297
0.00437956
0.0046767
0.00503709
0.00546654
0.00595517
0.00647205
0.00701897
0.00780717
0.00806606
0.0108741
0.0117589
0.00444413
)
;
    }
    sWall
    {
        type            kqRWallFunction;
        value           nonuniform List<scalar> 9(0.0219184 0.019233 0.0159479 0.0132635 0.0133472 0.0108741 0.0150799 0.0138113 0.0121351);
    }
    nWall
    {
        type            kqRWallFunction;
        value           nonuniform List<scalar> 
14
(
0.00185296
0.00265949
0.00367756
0.00840063
0.00817135
0.00763598
0.00736793
0.00835189
0.00865764
0.00887476
0.00822845
0.00785875
0.00882012
0.00806606
)
;
    }
    sideWalls
    {
        type            empty;
    }
    glass1
    {
        type            kqRWallFunction;
        value           nonuniform List<scalar> 9(0.00158596 0.00340709 0.00549102 0.00797398 0.010877 0.0141756 0.0179928 0.0216416 0.0228337);
    }
    glass2
    {
        type            kqRWallFunction;
        value           nonuniform List<scalar> 2(0.006213 0.00813701);
    }
    sun
    {
        type            kqRWallFunction;
        value           nonuniform List<scalar> 
14
(
0.00158596
0.00180111
0.0017879
0.00194636
0.00209751
0.0022397
0.0023763
0.00251185
0.00265215
0.00280548
0.00295578
0.00310221
0.00324993
0.00341257
)
;
    }
    Table_master
    {
        type            kqRWallFunction;
        value           nonuniform List<scalar> 9(0.00266671 0.00201673 0.00157707 0.0012706 0.00105027 0.00088768 0.00076518 0.000672259 0.000603997);
    }
    Table_slave
    {
        type            kqRWallFunction;
        value           nonuniform List<scalar> 9(0.00345611 0.00285973 0.00243693 0.002111 0.0018516 0.00163306 0.00143955 0.00125944 0.00107848);
    }
    inlet
    {
        type            turbulentIntensityKineticEnergyInlet;
        intensity       0.05;
        value           uniform 0.0009375;
    }
    outlet
    {
        type            zeroGradient;
    }
}


// ************************************************************************* //
