/*--------------------------------*- C++ -*----------------------------------*\
  =========                 |
  \\      /  F ield         | OpenFOAM: The Open Source CFD Toolbox
   \\    /   O peration     | Website:  https://openfoam.org
    \\  /    A nd           | Version:  6
     \\/     M anipulation  |
\*---------------------------------------------------------------------------*/
FoamFile
{
    version     2.0;
    format      ascii;
    class       volScalarField;
    location    "42699.9999997120103";
    object      epsilon;
}
// * * * * * * * * * * * * * * * * * * * * * * * * * * * * * * * * * * * * * //

dimensions      [0 2 -3 0 0 0 0];

internalField   nonuniform List<scalar> 
778
(
0.000253132
0.000306353
0.000302985
0.000344142
0.000384992
0.000424789
0.000464229
0.000504502
0.000547345
0.000595479
0.00064396
0.000692399
0.00074244
0.000798872
0.000860715
8.94605e-05
0.000262791
0.000269274
0.000250241
0.000220387
0.000184297
0.00015247
0.00012661
0.000105974
8.95016e-05
7.63472e-05
6.569e-05
5.6888e-05
4.94153e-05
4.27998e-05
3.6543e-05
3.18329e-05
2.36082e-05
0.000797041
0.00144326
0.000286975
0.00025956
0.000261655
0.000267627
0.000276525
0.000289959
0.000310222
0.000340442
0.000379693
0.00043087
0.000499342
0.000600665
0.000785965
0.00112984
0.000979158
0.000858738
0.000511925
0.000369586
0.000294385
0.000243085
0.000204259
0.000187114
0.000154844
0.000125091
0.000100748
8.152e-05
6.65478e-05
5.48394e-05
4.5647e-05
3.87231e-05
3.45342e-05
3.27812e-05
6.57933e-05
4.81067e-05
0.00163075
0.00407935
0.000407401
0.0002429
0.000229074
0.00023099
0.000238211
0.000250486
0.000268401
0.000292689
0.000324844
0.000366956
0.000421409
0.000495201
0.000601681
0.000725015
0.000830145
0.00158466
0.00102773
0.000512371
0.000367817
0.000294428
0.000262278
0.00055203
0.000363051
0.000251047
0.000181536
0.00013642
0.000105998
8.48302e-05
6.98574e-05
5.94928e-05
4.51591e-05
3.80044e-05
0.000108091
7.08234e-05
0.00285378
0.00877105
0.000709945
0.000240705
0.000202453
0.000199992
0.000203172
0.000209807
0.000220633
0.000237563
0.000263275
0.00030006
0.000349334
0.000412539
0.000488277
0.00056048
0.000612599
0.000824531
0.00156493
0.000728871
0.000459754
0.000358274
0.000301906
0.000291829
0.000814355
0.00061297
0.000482201
0.000388767
0.000319352
0.000264511
0.000218915
0.000179144
0.000141958
8.38966e-05
5.49649e-05
0.000148349
9.45689e-05
0.00454647
0.0158283
0.00134652
0.000258337
0.000175711
0.000166772
0.000165789
0.000167774
0.000173945
0.000187457
0.000211717
0.000248433
0.000297909
0.000359529
0.000428052
0.000489443
0.000528778
0.000582613
0.000627612
0.00048322
0.000393477
0.000331007
0.000282281
0.000248628
0.000247854
0.000226807
0.000202972
0.000181092
0.000162713
0.000146552
0.000131882
0.000118285
0.000105119
8.45434e-05
6.43008e-05
0.000105128
0.000138835
0.000160063
0.000358959
0.000320253
0.0067643
0.0248792
0.00255377
0.000318091
0.000155522
0.00013705
0.000132119
0.000130695
0.000134469
0.000148557
0.000176712
0.000218107
0.000270893
0.0003343
0.000401988
0.000462906
0.000503256
0.000521897
0.000504952
0.000438348
0.000373865
0.000315665
0.000264754
0.000223407
0.000193315
0.000169651
0.000150828
0.000135633
0.000123299
0.000112753
0.0001033
9.45325e-05
8.60723e-05
7.59014e-05
6.54292e-05
7.76269e-05
9.97678e-05
0.000207571
0.00105378
0.000550935
0.00967297
0.0336374
0.00458412
0.000465064
0.000150843
0.000116336
0.000107087
0.000103289
0.000107088
0.000127905
0.000166097
0.000215865
0.000273346
0.000340204
0.000409582
0.000470758
0.000510474
0.000520711
0.000494523
0.000437774
0.000371932
0.000307533
0.000250583
0.000204466
0.000169767
0.000144564
0.000126322
0.000112727
0.000102274
9.37144e-05
8.62313e-05
7.93527e-05
7.27872e-05
6.61092e-05
6.03745e-05
6.38761e-05
7.67661e-05
0.000171178
0.00156775
0.000895003
0.0127599
0.0404059
0.00749027
0.000871539
0.000194349
0.000115409
9.74097e-05
9.14865e-05
9.86986e-05
0.000137725
0.000189257
0.000246213
0.000307059
0.000373962
0.000445046
0.000508403
0.000547744
0.000551259
0.000515968
0.000451756
0.000375642
0.000301032
0.000236514
0.000185977
0.000149313
0.000123966
0.000106684
9.4542e-05
8.57178e-05
7.88026e-05
7.29132e-05
6.7558e-05
6.24881e-05
5.76614e-05
5.40211e-05
5.60886e-05
7.02331e-05
0.00033505
0.0053101
0.00195976
0.0138283
0.0414587
0.0139319
0.00316398
0.000630396
0.000208227
0.000132823
0.000116117
0.000142637
0.000193061
0.000249341
0.000306422
0.00036739
0.000436789
0.000511346
0.000576067
0.000611255
0.000603495
0.000552461
0.00047121
0.000378645
0.000290979
0.000218259
0.000163995
0.000126741
0.000102565
8.72372e-05
7.72952e-05
7.06245e-05
6.56448e-05
6.14649e-05
5.76435e-05
5.40045e-05
5.0648e-05
4.85653e-05
5.32448e-05
9.81311e-05
0.000940514
0.0127905
0.00295392
0.013005
0.0283695
0.0144151
0.00572702
0.00210526
0.000835563
0.000414444
0.000277445
0.000279575
0.000315022
0.000356347
0.000401863
0.000458717
0.000531064
0.000610181
0.000674178
0.000698896
0.000670893
0.000594149
0.000487012
0.000372845
0.000270746
0.000191103
0.000135687
0.000100613
7.98206e-05
6.79079e-05
6.11256e-05
5.70427e-05
5.40997e-05
5.15518e-05
4.90952e-05
4.66772e-05
4.45812e-05
4.4488e-05
5.87252e-05
0.000229418
0.00276231
0.010714
0.00308123
0.0106894
0.0193551
0.012038
0.00630073
0.00317552
0.00167591
0.000987878
0.000680079
0.000560977
0.000518075
0.00051092
0.000531783
0.000583908
0.000662849
0.000747401
0.000804908
0.000807222
0.000744298
0.000628486
0.000486521
0.000347791
0.000233557
0.000152373
0.000101687
7.35099e-05
5.87735e-05
5.1331e-05
4.78746e-05
4.60607e-05
4.47305e-05
4.34056e-05
4.19339e-05
4.03949e-05
3.93904e-05
4.25819e-05
8.6145e-05
0.000668076
0.00304739
0.00776253
0.00293937
0.00807091
0.0137671
0.00969061
0.0059332
0.00357014
0.00222816
0.00149157
0.00109394
0.000870174
0.000744324
0.00068652
0.00069057
0.000750699
0.000844458
0.000931484
0.000967535
0.00092555
0.000805894
0.000635704
0.000452891
0.000293176
0.000177235
0.000106789
6.94077e-05
5.24921e-05
4.43684e-05
4.05124e-05
3.90704e-05
3.84666e-05
3.80109e-05
3.74156e-05
3.66153e-05
3.57917e-05
3.59642e-05
4.47366e-05
0.000153826
0.000886299
0.0028845
0.00596526
0.00266126
0.00612149
0.0101628
0.00778762
0.00531134
0.00356993
0.00246927
0.00178832
0.00136867
0.00109347
0.000926684
0.000859882
0.000886992
0.0009823
0.00109586
0.00116709
0.00114795
0.00102608
0.000822767
0.000587791
0.000369608
0.000208031
0.000114407
7.20026e-05
5.23048e-05
4.29639e-05
3.82049e-05
3.5779e-05
3.48361e-05
3.44977e-05
3.43314e-05
3.41909e-05
3.41309e-05
3.44792e-05
3.66625e-05
5.0147e-05
0.000156319
0.000757492
0.00242745
0.00573466
0.00258485
0.00618072
0.0078037
0.00679901
0.00473687
0.00336415
0.00246157
0.00186541
0.00146217
0.00119479
0.00106523
0.00107092
0.00117976
0.0013268
0.00143287
0.00143268
0.00129669
0.00105084
0.000744496
0.000458377
0.000238967
0.000130866
8.1554e-05
5.99852e-05
4.95364e-05
4.36352e-05
3.98011e-05
3.72147e-05
3.57405e-05
3.51074e-05
3.50304e-05
3.55934e-05
3.71865e-05
4.05486e-05
4.7535e-05
6.63549e-05
0.000146927
0.000561725
0.00198656
0.0045582
0.00315332
0.004545
0.00511041
0.00418308
0.00336055
0.00263877
0.00206932
0.00164836
0.00136161
0.00124554
0.00130165
0.00147807
0.0016833
0.00181655
0.00180551
0.00162721
0.00129838
0.000911482
0.000522289
0.00027957
0.000154596
0.000101253
7.89001e-05
6.82377e-05
6.16796e-05
5.65791e-05
5.20566e-05
4.80449e-05
4.50797e-05
4.38474e-05
4.43118e-05
4.72041e-05
5.40674e-05
6.71168e-05
8.94675e-05
0.000128647
0.000217126
0.000523669
0.00190182
0.00356346
0.00327222
0.00140107
0.00143109
0.00143284
0.00135308
0.00131042
0.00142402
0.00170989
0.00204396
0.00230205
0.00239358
0.00227329
0.00196022
0.00151911
0.000979631
0.000569351
0.000312231
0.000186317
0.000134182
0.000113899
0.000104734
9.91095e-05
9.43819e-05
8.94898e-05
8.39735e-05
7.79858e-05
7.26889e-05
7.06755e-05
7.30818e-05
8.21757e-05
0.000102176
0.000138686
0.000198213
0.000291608
0.000451903
0.000798726
0.00206724
0.00355441
0.00338272
0.00118734
0.00171502
0.00195114
0.00230728
0.00275671
0.00316103
0.00333956
0.00330095
0.00307
0.00267172
0.00210322
0.00148646
0.000958326
0.000563551
0.000336079
0.000230377
0.000189738
0.000174988
0.000168825
0.000165338
0.000162732
0.000160202
0.000157012
0.000152433
0.000146243
0.000139653
0.000136844
0.000141897
0.000158813
0.000195014
0.000261397
0.000372442
0.000549373
0.000833779
0.00132335
0.00226241
0.00397605
0.00298813
0.00742179
0.00808432
0.0048072
0.00339915
0.00373374
0.00414717
0.00416145
0.00395073
0.00359209
0.00313348
0.00261988
0.00207458
0.0015277
0.00104524
0.000688851
0.000473058
0.000370296
0.000328703
0.000311252
0.00030153
0.00029462
0.000289723
0.000287064
0.000286602
0.00028752
0.000288244
0.000287187
0.000284518
0.000284805
0.000294709
0.000318306
0.000363636
0.000443814
0.000578596
0.000798743
0.00115946
0.00177093
0.00278449
0.00427067
0.00283281
0.00650486
0.0051355
0.00437027
0.00462281
0.00454029
0.0042712
0.00368977
0.00304319
0.00245764
0.00196435
0.00155909
0.00122957
0.00097126
0.000785975
0.00066874
0.000603942
0.000567173
0.000543956
0.000527029
0.000513994
0.000505217
0.000502336
0.000507216
0.000521128
0.000544096
0.000574551
0.000609437
0.000644817
0.000676703
0.000707922
0.000747812
0.000808041
0.000902414
0.00104952
0.00127807
0.00163608
0.0022018
0.00310402
0.00378796
0.00369624
0.00535684
0.00336936
0.00331819
0.00361461
0.00387208
0.00353153
0.0029262
0.00230784
0.00177843
0.00135595
0.00103017
0.000788688
0.0006211
0.00051624
0.000459602
0.000434622
0.000429275
0.000432154
0.000439523
0.000451724
0.000470649
0.000498591
0.000537241
0.000586912
0.000646261
0.000712711
0.000783462
0.00085674
0.000933061
0.00101391
0.00110151
0.0012033
0.00132843
0.00148637
0.00168539
0.00192825
0.0022058
0.00250871
0.00292064
0.00308069
)
;

boundaryField
{
    floor
    {
        Cmu             0.09;
        kappa           0.41;
        E               9.8;
        type            epsilonWallFunction;
        value           nonuniform List<scalar> 
36
(
0.000860715
8.94605e-05
0.000262791
0.000269274
0.000250241
0.000220387
0.000184297
0.00015247
0.00012661
0.000105974
8.95016e-05
7.63472e-05
6.569e-05
5.6888e-05
4.94153e-05
4.27998e-05
3.6543e-05
3.18329e-05
2.36082e-05
2.36082e-05
4.81067e-05
7.08234e-05
9.45689e-05
0.000160063
0.000358959
0.000320253
0.000860715
0.00112984
0.000979158
0.000858738
8.94605e-05
0.000858738
0.000511925
0.00158466
0.00102773
0.00156493
)
;
    }
    ceiling
    {
        Cmu             0.09;
        kappa           0.41;
        E               9.8;
        type            epsilonWallFunction;
        value           nonuniform List<scalar> 
43
(
0.00535684
0.00336936
0.00331819
0.00361461
0.00387208
0.00353153
0.0029262
0.00230784
0.00177843
0.00135595
0.00103017
0.000788688
0.0006211
0.00051624
0.000459602
0.000434622
0.000429275
0.000432154
0.000439523
0.000451724
0.000470649
0.000498591
0.000537241
0.000586912
0.000646261
0.000712711
0.000783462
0.00085674
0.000933061
0.00101391
0.00110151
0.0012033
0.00132843
0.00148637
0.00168539
0.00192825
0.0022058
0.00250871
0.00292064
0.00308069
0.004545
0.00511041
0.00118734
)
;
    }
    sWall
    {
        Cmu             0.09;
        kappa           0.41;
        E               9.8;
        type            epsilonWallFunction;
        value           nonuniform List<scalar> 9(0.013005 0.0106894 0.00807091 0.00612149 0.00618072 0.004545 0.00742179 0.00650486 0.00535684);
    }
    nWall
    {
        Cmu             0.09;
        kappa           0.41;
        E               9.8;
        type            epsilonWallFunction;
        value           nonuniform List<scalar> 
14
(
0.000320253
0.000550935
0.000895003
0.00308123
0.00293937
0.00266126
0.00258485
0.00315332
0.00327222
0.00338272
0.00298813
0.00283281
0.00369624
0.00308069
)
;
    }
    sideWalls
    {
        type            empty;
    }
    glass1
    {
        Cmu             0.09;
        kappa           0.41;
        E               9.8;
        type            epsilonWallFunction;
        value           nonuniform List<scalar> 9(0.000253132 0.000797041 0.00163075 0.00285378 0.00454647 0.0067643 0.00967297 0.0127599 0.0138283);
    }
    glass2
    {
        Cmu             0.09;
        kappa           0.41;
        E               9.8;
        type            epsilonWallFunction;
        value           nonuniform List<scalar> 2(0.00195976 0.00295392);
    }
    sun
    {
        Cmu             0.09;
        kappa           0.41;
        E               9.8;
        type            epsilonWallFunction;
        value           nonuniform List<scalar> 
14
(
0.000253132
0.000306353
0.000302985
0.000344142
0.000384992
0.000424789
0.000464229
0.000504502
0.000547345
0.000595479
0.00064396
0.000692399
0.00074244
0.000798872
)
;
    }
    Table_master
    {
        Cmu             0.09;
        kappa           0.41;
        E               9.8;
        type            epsilonWallFunction;
        value           nonuniform List<scalar> 9(0.00055203 0.000363051 0.000251047 0.000181536 0.00013642 0.000105998 8.48302e-05 6.98574e-05 5.94928e-05);
    }
    Table_slave
    {
        Cmu             0.09;
        kappa           0.41;
        E               9.8;
        type            epsilonWallFunction;
        value           nonuniform List<scalar> 9(0.000814355 0.00061297 0.000482201 0.000388767 0.000319352 0.000264511 0.000218915 0.000179144 0.000141958);
    }
    inlet
    {
        type            turbulentMixingLengthDissipationRateInlet;
        mixingLength    0.01;
        phi             phi;
        k               k;
        value           uniform 0.000471671;
    }
    outlet
    {
        type            zeroGradient;
    }
}


// ************************************************************************* //
