/*--------------------------------*- C++ -*----------------------------------*\
  =========                 |
  \\      /  F ield         | OpenFOAM: The Open Source CFD Toolbox
   \\    /   O peration     | Website:  https://openfoam.org
    \\  /    A nd           | Version:  6
     \\/     M anipulation  |
\*---------------------------------------------------------------------------*/
FoamFile
{
    version     2.0;
    format      ascii;
    class       surfaceScalarField;
    location    "35799.9999983062953";
    object      phi;
}
// * * * * * * * * * * * * * * * * * * * * * * * * * * * * * * * * * * * * * //

dimensions      [1 0 -1 0 0 0 0];

internalField   nonuniform List<scalar> 
1482
(
-0.00279974
0.00286378
-0.00348388
0.000684141
-0.00414444
0.000660559
-0.00475835
0.000613906
-0.00527951
0.000521161
-0.0056912
0.000411687
-0.00598221
0.00029101
-0.00613951
0.000157302
-0.00614579
6.28363e-06
-0.00597509
-0.000170706
-0.00559743
-0.000377652
-0.00498176
-0.000615673
-0.00405783
-0.000923928
-0.0025794
-0.00147843
-0.00257648
-6.36444e-05
6.84994e-05
0.00078148
-0.000845125
0.00143525
-0.000653769
0.00183586
-0.000400613
0.00205848
-0.000222619
0.00216323
-0.000104746
0.00221053
-4.7307e-05
0.00223335
-2.28143e-05
0.00224319
-9.8393e-06
0.00224418
-9.88914e-07
0.00223715
7.0234e-06
0.0022181
1.90474e-05
0.00217371
4.43929e-05
0.00207073
0.000102984
0.00185363
0.000217094
0.00149533
0.000358303
0.00102253
0.000472805
0.00102896
-0.00204033
0.00507443
-0.00290837
0.00155218
-0.00369407
0.00144626
-0.00434491
0.00126475
-0.00488193
0.00105818
-0.00531043
0.000840186
-0.00562866
0.000609238
-0.00582985
0.000358496
-0.00590336
7.97987e-05
-0.00584138
-0.000232692
-0.00563805
-0.000580976
-0.00528204
-0.00097169
-0.00477211
-0.00143385
-0.00428628
-0.00196426
-0.00470215
-0.00216062
-0.00311651
-0.00158019
-0.00163408
-0.00147674
-0.00161924
0.0013182
-0.00123949
0.00166323
-0.00119016
0.00191602
-0.000906562
0.00210841
-0.000593002
0.00221685
-0.00033106
0.00222601
-0.000113899
0.00222793
-4.92317e-05
0.00222948
-2.43636e-05
0.0022304
-1.07542e-05
0.00223039
-9.85154e-07
0.00222904
8.37542e-06
0.00222485
2.324e-05
0.00221219
5.70461e-05
0.00215017
0.000165011
0.00190018
0.000467081
0.00146994
0.000788541
0.000904965
0.00103778
0.00195081
-0.0014882
0.00682055
-0.00235901
0.00242298
-0.00312884
0.00221609
-0.00371287
0.00184878
-0.00418331
0.00152861
-0.00455449
0.00121137
-0.00482826
0.000883008
-0.00500141
0.000531649
-0.00506757
0.000145961
-0.00501768
-0.000282588
-0.00484095
-0.000757699
-0.00452991
-0.00128273
-0.00411529
-0.00184847
-0.00371773
-0.00236181
-0.00329725
-0.00258111
-0.00236602
-0.00251142
-0.00127254
-0.00257021
-0.00287895
0.00115133
-0.00237636
0.00165516
-0.00169398
0.00195403
-0.00120543
0.00214771
-0.000786682
0.00217965
-0.000362997
0.0020659
0.00201682
0.00199261
0.00198201
0.00198118
0.00198971
0.00201311
0.00207031
0.00223547
0.00187705
0.000825507
0.00142867
0.00123692
0.000807726
0.00165872
0.00278456
-0.00110601
0.00825777
-0.00192784
0.0032448
-0.00256971
0.00285797
-0.00302987
0.00230894
-0.00339719
0.00189593
-0.00368573
0.00149991
-0.0038985
0.00109578
-0.0040337
0.000666848
-0.00408384
0.000196094
-0.00403573
-0.000330696
-0.00387706
-0.000916362
-0.00360365
-0.00155615
-0.00323797
-0.00221414
-0.00281584
-0.00278395
-0.00227623
-0.00312072
-0.00155644
-0.00323121
-0.000868152
-0.00325851
-0.000687806
-0.00305929
0.00144858
-0.00212094
0.00137918
-0.00230696
0.00169417
-0.00200897
0.00200644
-0.0015177
0.00227247
-0.00105272
0.00254765
-0.000638173
0.00286364
-0.000316152
0.00303237
-0.000168881
0.00309856
-6.63417e-05
0.00308277
1.56374e-05
0.00299378
8.88324e-05
0.00283256
0.000161065
0.00259125
0.000241158
0.00224686
0.000344233
0.00174203
0.00050468
0.00160557
0.000961966
0.00127817
0.00156433
0.000751072
0.00218582
0.00356992
-0.000803724
0.00945467
-0.00157979
0.00402087
-0.00204827
0.00332645
-0.0023638
0.00262448
-0.00260796
0.00214009
-0.00279327
0.00168521
-0.00292473
0.00122725
-0.0030031
0.000745214
-0.00302183
0.000214827
-0.00296434
-0.000388191
-0.00281734
-0.00106337
-0.00257377
-0.00179972
-0.00224011
-0.0025478
-0.00182346
-0.0032006
-0.00131796
-0.00362622
-0.000741262
-0.00380791
-0.000209838
-0.00378994
0.00026739
-0.00353652
0.00112812
-0.00298168
0.0014934
-0.00267223
0.00175153
-0.0022671
0.00200346
-0.00176963
0.00223308
-0.00128234
0.00244747
-0.000852561
0.00264978
-0.000518459
0.00276152
-0.000280622
0.00279949
-0.000104306
0.00277528
3.98416e-05
0.00269519
0.000168922
0.00256162
0.000294631
0.00237339
0.000429396
0.00212822
0.000589402
0.00183449
0.000798412
0.00162981
0.00116664
0.00149075
0.00170338
0.00131615
0.00236042
0.00231244
0.00257363
0.00134554
0.0010018
0.00188941
-0.000515213
0.00200791
-0.000575827
0.0104769
-0.00132467
0.00476971
-0.00158408
0.00358585
-0.0017498
0.0027902
-0.0018636
0.00225388
-0.00193489
0.00175651
-0.00197016
0.00126252
-0.00197372
0.000748768
-0.00194233
0.000183445
-0.00185435
-0.00047618
-0.0016999
-0.00121782
-0.00146891
-0.00203071
-0.00116426
-0.00285246
-0.000791769
-0.00357309
-0.000371831
-0.00404616
6.86067e-05
-0.00424835
0.000473895
-0.00419523
0.000848238
-0.00391087
0.0012988
-0.00343225
0.00159699
-0.00297042
0.00179955
-0.00246967
0.00197052
-0.0019406
0.00212213
-0.00143394
0.00225712
-0.000987556
0.0023632
-0.000624534
0.00242312
-0.000340546
0.00243617
-0.000117356
0.00240732
6.86989e-05
0.00234116
0.000235081
0.00224136
0.000394428
0.00211193
0.000558825
0.00196006
0.000741273
0.00180067
0.000957801
0.00171086
0.00125645
0.00177133
0.00164292
0.00198975
0.002142
0.00224373
0.00231964
0.00176289
0.00148264
0.000835059
0.00041262
0.00294016
-0.000543528
0.0115126
-0.00124368
0.00546986
-0.00119173
0.00353391
-0.00119983
0.0027983
-0.00119196
0.00224601
-0.00115829
0.00172284
-0.001101
0.00120523
-0.00102585
0.000673619
-0.000927208
8.48038e-05
-0.000778218
-0.00062517
-0.000588935
-0.0014071
-0.00034873
-0.00227091
-6.47442e-05
-0.00313644
0.000240202
-0.00387803
0.000550285
-0.00435625
0.000845531
-0.00454359
0.00110856
-0.00445825
0.00134178
-0.0041441
0.00157311
-0.00366358
0.00173212
-0.00312943
0.00183133
-0.00256888
0.00190093
-0.00201021
0.00195683
-0.00148984
0.00200428
-0.001035
0.00203804
-0.000658294
0.00205219
-0.000354701
0.00204299
-0.000108154
0.00201084
0.000100845
0.00195851
0.000287409
0.0018895
0.000463444
0.0018088
0.000639526
0.00172494
0.00082513
0.00165339
0.00102935
0.00163865
0.0012712
0.00172815
0.00155342
0.00194752
0.00192263
0.00221892
0.00204824
0.00224611
0.00145545
0.00165249
0.00100623
0.00469519
-0.000483781
0.0125319
-0.00105163
0.00603771
-0.000697309
0.00317959
-0.000636169
0.00273716
-0.000567525
0.00217737
-0.000462562
0.00161788
-0.000333262
0.00107593
-0.000181755
0.000522111
7.71104e-06
-0.000104662
0.000225959
-0.000843418
0.000465839
-0.00164698
0.000723716
-0.00252879
0.000980789
-0.00339351
0.00120941
-0.00410665
0.00140887
-0.00455571
0.00157018
-0.0047049
0.00168803
-0.0045761
0.00176708
-0.00422315
0.00181973
-0.00371623
0.00182922
-0.00313892
0.00180393
-0.0025436
0.0017631
-0.00196937
0.00172181
-0.00144855
0.00168769
-0.00100089
0.00166075
-0.000631346
0.00163688
-0.000330835
0.00161095
-8.22203e-05
0.00158031
0.000131481
0.00154476
0.000322964
0.00150517
0.000503032
0.00146426
0.000680434
0.00142788
0.000861507
0.00140698
0.00105025
0.00142616
0.00125201
0.00151777
0.00146181
0.00174153
0.00169886
0.00207158
0.00171819
0.00223847
0.00128855
0.00174601
0.00149868
0.00680783
0.00297891
0.0101401
0.00202351
0.00699311
0.00086999
0.00433311
0.000371484
0.00323567
0.000214664
0.00233419
0.000271305
0.00156124
0.000425537
0.000921698
0.000639748
0.0003079
0.000899297
-0.000364211
0.00116453
-0.00110865
0.00144331
-0.00192575
0.00171051
-0.00279598
0.00193669
-0.00361969
0.00209756
-0.00426751
0.00218735
-0.00464549
0.00220872
-0.00472627
0.00217049
-0.00453787
0.00208629
-0.00413895
0.00197131
-0.00360126
0.00183125
-0.00299886
0.00167842
-0.00239077
0.00152995
-0.00182091
0.00140074
-0.00131934
0.00129924
-0.000899389
0.00122677
-0.000558875
0.00117837
-0.000282433
0.00114644
-5.02886e-05
0.00112517
0.000152749
0.00111048
0.000337653
0.00109952
0.000514
0.00109147
0.000688483
0.00108789
0.000865081
0.0010933
0.00104485
0.00111908
0.00122623
0.00118584
0.00139506
0.00135916
0.00152554
0.00170571
0.00137165
0.00183245
0.0011618
0.000506659
0.00282443
0.00769806
0.00403337
0.00624699
0.00366997
0.0073565
0.00254415
0.00545893
0.00189057
0.00388925
0.00153394
0.00269082
0.00138919
0.00170599
0.00142322
0.000887662
0.00159801
0.000133117
0.00185047
-0.000616674
0.002128
-0.00138618
0.002408
-0.00220575
0.0026531
-0.00304109
0.0028216
-0.00378818
0.00288652
-0.00433241
0.00284469
-0.00460365
0.00271003
-0.0045916
0.00250485
-0.00433269
0.00225343
-0.00388752
0.0019785
-0.00332633
0.00169721
-0.00271758
0.00142698
-0.00212054
0.001186
-0.00157993
0.00098937
-0.00112272
0.00084394
-0.000753958
0.000748744
-0.000463679
0.000694731
-0.00022842
0.000670505
-2.60624e-05
0.000666561
0.000156693
0.000675247
0.000328966
0.00069098
0.000498267
0.000710161
0.000669303
0.000729705
0.000845537
0.000745454
0.0010291
0.000749516
0.00122217
0.000720339
0.00142424
0.000592721
0.00165316
-3.08722e-05
0.00199528
-0.001833
0.00296395
-0.00316432
0.00415565
0.00463758
0.00241068
0.00400084
0.00330632
0.00646087
0.00325012
0.00551513
0.00303914
0.00410024
0.00284817
0.00288179
0.00272514
0.00182903
0.00271159
0.000901211
0.00280105
4.3655e-05
0.00296354
-0.000779159
0.0031746
-0.00159724
0.00339237
-0.00242352
0.00355674
-0.00320545
0.00361291
-0.00384434
0.00353426
-0.00425376
0.00332636
-0.00439574
0.00301545
-0.00428068
0.0026359
-0.00395314
0.00222107
-0.00347269
0.00180048
-0.00290574
0.00139773
-0.00231482
0.00103464
-0.00175745
0.000731388
-0.00127668
0.00050252
-0.000893848
0.000347789
-0.000599227
0.000258594
-0.000374483
0.000218169
-0.000187995
0.000211599
-1.94923e-05
0.000227477
0.000140816
0.000257458
0.000298985
0.000296001
0.000459724
0.00033893
0.000626374
0.000380622
0.000803845
0.000412132
0.000997587
0.000414357
0.00121994
0.000343873
0.00149472
0.000111213
0.00188583
-0.000559901
0.00266666
-0.00181538
0.00421972
-0.00228972
0.00463009
0.00246405
0.00145696
0.00273816
0.00274829
0.00516953
0.00343227
0.00483115
0.00371849
0.00381402
0.00381734
0.00278294
0.00384603
0.00180033
0.00388302
0.000864221
0.00395307
-2.6388e-05
0.00406367
-0.000889755
0.00420413
-0.0017377
0.00432308
-0.00254248
0.00434982
-0.00323219
0.00423276
-0.00372727
0.0039598
-0.00398078
0.00355351
-0.00398944
0.00305375
-0.0037809
0.00250425
-0.00340364
0.00194357
-0.002912
0.00140566
-0.00236783
0.000917097
-0.00182626
0.00050526
-0.00134561
0.000189902
-0.000961318
-2.17135e-05
-0.000682233
-0.000144892
-0.00047605
-0.000204441
-0.000314934
-0.000222254
-0.000170182
-0.000211639
-3.01074e-05
-0.000181221
0.000110398
-0.000136598
0.000254363
-8.13038e-05
0.00040443
-1.80683e-05
0.000563139
4.92493e-05
0.000736528
0.000113486
0.000933351
0.00015989
0.00117354
0.000154455
0.00150015
3.67513e-05
0.00200352
-0.000161181
0.00286479
-0.000397028
0.00445605
-0.000567847
0.0048013
0.00202413
0.00216987
0.000794273
0.00293998
0.00439942
0.00359104
0.00418009
0.00416212
0.00324295
0.00449067
0.0024544
0.00466596
0.00162504
0.00478389
0.000746289
0.0048897
-0.000132191
0.00499676
-0.000996826
0.00507512
-0.00181607
0.00505939
-0.00252676
0.00488955
-0.00306234
0.00454322
-0.00338094
0.00403943
-0.00347699
0.00342316
-0.00337315
0.00274509
-0.00310282
0.00205338
-0.00271192
0.00138561
-0.00224423
0.000780245
-0.00176246
0.000263292
-0.00130931
-0.000126019
-0.000956302
-0.000381025
-0.000706314
-0.00052758
-0.00053568
-0.000602022
-0.000401609
-0.000632503
-0.000284452
-0.000632451
-0.000170234
-0.000609873
-5.26843e-05
-0.000570217
7.07432e-05
-0.000516643
0.00020079
-0.000450917
0.000338705
-0.000374232
0.000486455
-0.000286494
0.000648791
-0.000188225
0.000835081
-8.31173e-05
0.00106843
9.08769e-06
0.00140792
6.3993e-05
0.00194852
0.000214829
0.00271387
0.000719835
0.00395129
0.0010429
0.0044785
0.0032004
-0.00158175
0.00262112
0.00111476
0.00170292
0.00334748
0.00194737
0.00435061
0.00223982
0.00485534
0.00194967
0.00517116
0.00130922
0.00540058
0.000516869
0.0055793
-0.00031092
0.00567871
-0.00109626
0.00563712
-0.00177452
0.00540399
-0.00229365
0.00496781
-0.00262617
0.00435669
-0.00276981
0.00362366
-0.00274395
0.00282866
-0.00257815
0.00202132
-0.00229548
0.00124895
-0.00193955
0.000541552
-0.00153683
-5.37345e-05
-0.00116717
-0.000492593
-0.000870451
-0.000769546
-0.000679354
-0.000929642
-0.000546225
-0.0010184
-0.000446926
-0.00106005
-0.000359965
-0.00106972
-0.00027478
-0.00105505
-0.000184899
-0.00102125
-8.6481e-05
-0.000973287
2.27807e-05
-0.000913981
0.000141486
-0.000844044
0.000268769
-0.000764293
0.000406705
-0.000673893
0.000558393
-0.000571516
0.000732706
-0.00046062
0.000957521
-0.000355395
0.00130261
-0.000230873
0.00182374
9.16157e-05
0.00239097
0.000965599
0.0030771
0.00155185
0.0038921
0.00489395
0.00288283
0.00457056
0.00487013
0.00164779
0.00535645
0.0017535
0.00559329
0.00171283
0.00582541
0.0010771
0.00601305
0.000329217
0.00607867
-0.000376576
0.0059516
-0.000969236
0.00559909
-0.00142206
0.00503424
-0.00172883
0.00430434
-0.00189628
0.00346801
-0.00193348
0.00258391
-0.00185985
0.0017063
-0.00170054
0.000867446
-0.00145662
0.000107399
-0.0011795
-0.000515827
-0.0009136
-0.000959785
-0.000723217
-0.00123887
-0.000591382
-0.00141046
-0.000507779
-0.00151083
-0.000445869
-0.00156596
-0.000391809
-0.00158821
-0.000337713
-0.00158386
-0.000279122
-0.00155662
-0.000212127
-0.00151049
-0.000132596
-0.00145116
-3.65388e-05
-0.00138494
7.52662e-05
-0.00131574
0.000199573
-0.00124668
0.000337642
-0.00118253
0.000494246
-0.00113016
0.000680363
-0.00109616
0.000923564
-0.0010703
0.00127672
-0.000996421
0.0017496
-0.000736054
0.00213001
9.51542e-05
0.00224513
0.000579979
0.0034066
0.00562861
0.0079346
0.0053618
0.00581532
0.00387281
0.00556677
0.00196142
0.00563783
0.00100606
0.00560082
0.00036621
0.00535503
-0.000130834
0.00489001
-0.000504265
0.00424709
-0.000779173
0.00348062
-0.000962375
0.00264386
-0.00105952
0.00177855
-0.00106817
0.000921589
-0.00100289
0.000106589
-0.000885534
-0.000610572
-0.00073946
-0.00117418
-0.000615889
-0.00157184
-0.000515955
-0.00184027
-0.000454811
-0.00201329
-0.000418389
-0.00212737
-0.00039374
-0.00220214
-0.000371128
-0.00224706
-0.000346914
-0.00226568
-0.000319088
-0.00225924
-0.000285533
-0.00222826
-0.000243064
-0.00217386
-0.000186951
-0.00209965
-0.000110713
-0.00201704
-7.3304e-06
-0.00193803
0.000120548
-0.00186866
0.00026825
-0.00181819
0.000443771
-0.00179871
0.000660947
-0.00182135
0.000946368
-0.00188128
0.0013369
-0.00198559
0.00185407
-0.00229792
0.00244227
-0.00298176
0.00292862
-0.00289479
0.00331908
0.00290353
0.00411623
0.00149211
0.00451696
0.00347211
0.00374303
0.00273536
0.00323645
0.00151264
0.00288745
0.000715156
0.00251819
0.000238384
0.00206928
-5.53796e-05
0.00152986
-0.000239758
0.000919582
-0.000352082
0.000256229
-0.000396152
-0.000422461
-0.000389471
-0.00105994
-0.000365391
-0.00160817
-0.000337286
-0.00203772
-0.000309907
-0.00235627
-0.000297351
-0.00257912
-0.000293141
-0.00273937
-0.000294618
-0.00286105
-0.000296778
-0.00295718
-0.000297678
-0.00303174
-0.000296612
-0.00308506
-0.000293604
-0.00311578
-0.000288328
-0.00312158
-0.000279659
-0.00309956
-0.000264986
-0.00304712
-0.000239281
-0.00296337
-0.000194386
-0.00285143
-0.000119253
-0.00272836
-2.57063e-06
-0.00261444
0.000154238
-0.00251645
0.000345693
-0.00243235
0.000576821
-0.00235517
0.000869307
-0.00226807
0.00125011
-0.00215244
0.00173889
-0.00212055
0.00241082
-0.00257714
0.00338558
-0.0027027
0.00344498
0.000383419
-0.00259158
-0.00675192
-0.00740928
-0.00745736
-0.00374805
-0.00216919
-0.00166856
0.0013926
-0.000755685
0.00182246
-0.000559175
0.00131609
-0.000641215
0.000797172
-0.00082785
0.00042501
-0.00106685
0.000183622
-0.00135149
4.48946e-05
-0.00168439
-1.91513e-05
-0.00204229
-3.82091e-05
-0.00239534
-3.63814e-05
-0.00272142
-3.92802e-05
-0.00299419
-6.4505e-05
-0.00320048
-0.000103641
-0.00335629
-0.00014159
-0.00348334
-0.000166177
-0.00359857
-0.000179497
-0.00370757
-0.000187878
-0.00380928
-0.000196038
-0.00389994
-0.00020599
-0.00397512
-0.000218391
-0.00402989
-0.000233469
-0.00405848
-0.000250917
-0.00405477
-0.00026851
-0.00401375
-0.000280116
-0.00393326
-0.000274732
-0.00381451
-0.000237936
-0.00366165
-0.000155497
-0.00349219
-1.54203e-05
-0.00332003
0.000173297
-0.00312856
0.000385132
-0.00288412
0.000624745
-0.00254342
0.000909469
-0.00203268
0.00122842
-0.00121261
0.00159114
4.85937e-05
0.00212472
0.000984017
0.00250998
0.00154793
-0.0073403
0.00104187
-0.00811464
-0.00668308
-0.00717019
-0.0031137
-0.00565091
-0.000126745
-0.00455839
0.000729906
-0.00396726
0.000724941
-0.00370881
0.000538733
-0.00364267
0.000358895
-0.00368443
0.000225425
-0.00377726
0.000137781
-0.00387909
8.27333e-05
-0.00396463
4.73908e-05
-0.00402473
2.37711e-05
-0.0040673
3.30663e-06
-0.00410838
-2.34416e-05
-0.00415929
-5.27931e-05
-0.00422388
-7.71012e-05
-0.00429814
-9.20446e-05
-0.00437711
-0.000100656
-0.00445671
-0.000108377
-0.00453381
-0.000118993
-0.00460583
-0.000133964
-0.0046705
-0.000153634
-0.00472564
-0.000178163
-0.00476899
-0.000207344
-0.00479814
-0.000239093
-0.00481046
-0.000267529
-0.00480247
-0.000282492
-0.00476849
-0.000271802
-0.00469897
-0.000225058
-0.00457919
-0.000135436
-0.00440043
-5.86169e-06
-0.0041559
0.000140167
-0.00381108
0.000279545
-0.00331315
0.000411281
-0.0025882
0.00050337
-0.00142373
0.000426725
0.000520901
0.000180232
0.00179213
0.00123897
0.0035232
0.00158359
-0.00503482
-0.00808523
-0.00815238
-0.00736789
-0.00659608
-0.0060171
-0.0056227
-0.00536484
-0.00519637
-0.00508368
-0.00500626
-0.0049519
-0.00491731
-0.00490899
-0.00492978
-0.00497476
-0.00503461
-0.00510302
-0.00517913
-0.00526592
-0.00536789
-0.00548992
-0.00563711
-0.00581435
-0.00602447
-0.00626435
-0.00652059
-0.00676749
-0.00696881
-0.0070814
-0.00706506
-0.00690315
-0.00660224
-0.00617005
-0.00564642
-0.00520033
-0.00500178
-0.00374556
)
;

boundaryField
{
    floor
    {
        type            calculated;
        value           nonuniform List<scalar> 
36
(
0
0
0
0
0
0
0
0
0
0
0
0
0
0
0
0
0
0
0
-6.43891e-06
-1.6882e-05
-2.60244e-05
-3.42885e-05
-3.48979e-05
-2.86587e-05
-2.85448e-05
-2.92046e-06
-5.44187e-06
-5.6882e-06
-5.90819e-06
-4.85474e-06
-8.93906e-06
-1.02088e-05
-1.28317e-05
-1.44562e-05
-1.54456e-05
)
;
    }
    ceiling
    {
        type            calculated;
        value           nonuniform List<scalar> 
43
(
-5.7829e-05
-6.47435e-05
-6.33508e-05
-5.96516e-05
-5.46196e-05
-4.68759e-05
-4.02208e-05
-3.54444e-05
-3.23506e-05
-3.0589e-05
-2.98643e-05
-2.99457e-05
-3.05497e-05
-3.12843e-05
-3.18051e-05
-3.2084e-05
-3.22224e-05
-3.23041e-05
-3.23477e-05
-3.23306e-05
-3.22118e-05
-3.19442e-05
-3.14829e-05
-3.07933e-05
-2.9862e-05
-2.87115e-05
-2.74129e-05
-2.60836e-05
-2.48592e-05
-2.3845e-05
-2.30816e-05
-2.25413e-05
-2.21372e-05
-2.17313e-05
-2.11875e-05
-2.04203e-05
-1.94232e-05
-1.82828e-05
-1.7138e-05
-1.64855e-05
1.93315e-05
1.51842e-05
-0.000246545
)
;
    }
    sWall
    {
        type            calculated;
        value           nonuniform List<scalar> 9(-0.000140237 -0.000164532 -0.000194273 -0.000225984 -0.000245098 -0.000281036 -0.000423459 -0.000453556 -0.000483905);
    }
    nWall
    {
        type            calculated;
        value           nonuniform List<scalar> 
14
(
-8.99521e-05
-9.7194e-05
-0.00010255
-0.000103881
-0.000116211
-0.000127767
-0.000133286
-0.000141951
-0.000155254
-0.000170209
-0.000182377
-0.000180148
-0.000182999
-0.000205744
)
;
    }
    sideWalls
    {
        type            empty;
        value           nonuniform 0();
    }
    glass1
    {
        type            calculated;
        value           nonuniform List<scalar> 9(-6.40339e-05 -0.00017032 -0.00025792 -0.000331202 -0.000393184 -0.000446386 -0.000492195 -0.000535476 -0.000587162);
    }
    glass2
    {
        type            calculated;
        value           nonuniform List<scalar> 2(-0.000366618 -0.00038359);
    }
    sun
    {
        type            calculated;
        value           uniform 0;
    }
    Table_master
    {
        type            calculated;
        value           nonuniform List<scalar> 9(-1.53991e-07 -1.54108e-07 -1.5414e-07 -1.5416e-07 -1.54173e-07 -1.54178e-07 -1.54176e-07 -1.54162e-07 -1.54109e-07);
    }
    Table_slave
    {
        type            calculated;
        value           nonuniform List<scalar> 9(1.53661e-07 1.53717e-07 1.53716e-07 1.53732e-07 1.53753e-07 1.53797e-07 1.53863e-07 1.53957e-07 1.54084e-07);
    }
    inlet
    {
        type            calculated;
        value           uniform -0.0116486;
    }
    outlet
    {
        type            calculated;
        value           nonuniform List<scalar> 2(0.00976691 0.012275);
    }
}


// ************************************************************************* //
