/*--------------------------------*- C++ -*----------------------------------*\
  =========                 |
  \\      /  F ield         | OpenFOAM: The Open Source CFD Toolbox
   \\    /   O peration     | Website:  https://openfoam.org
    \\  /    A nd           | Version:  6
     \\/     M anipulation  |
\*---------------------------------------------------------------------------*/
FoamFile
{
    version     2.0;
    format      ascii;
    class       volScalarField;
    location    "35799.9999983062953";
    object      T;
}
// * * * * * * * * * * * * * * * * * * * * * * * * * * * * * * * * * * * * * //

dimensions      [0 0 0 1 0 0 0];

internalField   nonuniform List<scalar> 
778
(
302.565
302.246
302.23
302.225
302.22
302.216
302.212
302.207
302.202
302.198
302.191
302.184
302.175
302.164
302.154
302.223
302.094
302.086
302.085
302.087
302.091
302.095
302.1
302.105
302.11
302.115
302.12
302.125
302.13
302.135
302.142
302.15
302.182
302.778
302.277
302.245
302.244
302.245
302.245
302.245
302.243
302.239
302.234
302.226
302.212
302.192
302.166
302.138
302.119
302.105
302.101
302.082
302.063
302.056
302.053
302.052
302.054
302.056
302.057
302.059
302.061
302.063
302.065
302.068
302.072
302.079
302.09
302.106
302.158
302.994
302.324
302.272
302.278
302.289
302.299
302.307
302.313
302.315
302.313
302.304
302.285
302.254
302.213
302.167
302.127
302.095
302.075
302.049
302.041
302.039
302.039
302.04
302.041
302.042
302.044
302.045
302.046
302.047
302.048
302.05
302.052
302.057
302.067
302.084
302.145
303.204
302.385
302.303
302.315
302.336
302.358
302.378
302.395
302.407
302.411
302.403
302.379
302.335
302.274
302.207
302.146
302.097
302.063
302.047
302.036
302.032
302.032
302.033
302.034
302.035
302.035
302.036
302.036
302.036
302.037
302.037
302.037
302.037
302.043
302.053
302.071
302.137
303.405
302.459
302.335
302.348
302.38
302.414
302.448
302.479
302.504
302.517
302.513
302.485
302.426
302.341
302.248
302.164
302.099
302.057
302.036
302.028
302.027
302.029
302.031
302.034
302.036
302.037
302.038
302.039
302.039
302.039
302.039
302.038
302.038
302.039
302.045
302.061
302.114
302.125
302.138
302.234
303.594
302.544
302.372
302.377
302.415
302.458
302.503
302.547
302.587
302.613
302.617
302.587
302.512
302.4
302.279
302.173
302.095
302.049
302.028
302.021
302.023
302.027
302.032
302.037
302.04
302.042
302.043
302.043
302.043
302.043
302.042
302.041
302.04
302.039
302.042
302.052
302.085
302.098
302.112
302.245
303.757
302.639
302.42
302.401
302.439
302.485
302.535
302.585
302.635
302.675
302.692
302.663
302.575
302.435
302.291
302.17
302.086
302.037
302.016
302.014
302.02
302.028
302.036
302.042
302.046
302.048
302.049
302.049
302.048
302.047
302.045
302.044
302.042
302.04
302.04
302.047
302.067
302.079
302.096
302.228
303.91
302.783
302.516
302.436
302.457
302.499
302.544
302.592
302.642
302.701
302.731
302.7
302.596
302.443
302.284
302.152
302.063
302.017
302.002
302.007
302.019
302.033
302.044
302.051
302.055
302.057
302.057
302.055
302.053
302.051
302.049
302.046
302.043
302.041
302.04
302.043
302.055
302.068
302.107
302.403
304.118
303.233
302.844
302.589
302.504
302.516
302.552
302.593
302.65
302.719
302.754
302.712
302.588
302.417
302.245
302.11
302.027
301.99
301.988
302.003
302.024
302.042
302.055
302.063
302.066
302.066
302.064
302.061
302.058
302.055
302.051
302.048
302.045
302.042
302.04
302.042
302.05
302.079
302.159
302.552
304.103
303.536
303.163
302.863
302.687
302.618
302.609
302.633
302.703
302.773
302.786
302.707
302.546
302.349
302.17
302.044
301.978
301.962
301.977
302.006
302.035
302.058
302.071
302.076
302.076
302.074
302.07
302.065
302.061
302.057
302.053
302.049
302.045
302.042
302.041
302.042
302.064
302.245
302.365
302.56
304.107
303.67
303.356
303.096
302.915
302.816
302.778
302.787
302.836
302.865
302.815
302.666
302.451
302.231
302.06
301.959
301.925
301.939
301.977
302.021
302.056
302.079
302.088
302.089
302.085
302.079
302.073
302.067
302.062
302.057
302.053
302.049
302.045
302.043
302.041
302.044
302.094
302.291
302.428
302.577
304.139
303.758
303.494
303.282
303.128
303.033
302.991
302.99
302.994
302.939
302.781
302.538
302.274
302.056
301.919
301.868
301.882
301.934
301.996
302.051
302.087
302.103
302.105
302.098
302.089
302.081
302.074
302.067
302.062
302.057
302.053
302.049
302.046
302.043
302.043
302.05
302.095
302.272
302.417
302.584
304.205
303.877
303.634
303.45
303.319
303.233
303.186
303.158
303.071
302.874
302.579
302.259
301.993
301.829
301.771
301.796
301.87
301.96
302.04
302.096
302.123
302.127
302.118
302.106
302.094
302.084
302.075
302.068
302.063
302.058
302.054
302.05
302.048
302.048
302.052
302.068
302.116
302.255
302.383
302.536
304.139
303.889
303.681
303.539
303.424
303.333
303.256
303.126
302.851
302.47
302.084
301.788
301.628
301.598
301.663
301.781
301.911
302.027
302.108
302.15
302.157
302.147
302.132
302.116
302.102
302.091
302.082
302.074
302.068
302.063
302.059
302.057
302.057
302.063
302.082
302.119
302.175
302.277
302.379
302.523
304.28
304.088
303.617
303.296
303.093
302.927
302.735
302.364
301.893
301.497
301.269
301.219
301.306
301.473
301.67
301.863
302.019
302.132
302.184
302.196
302.188
302.172
302.154
302.137
302.122
302.11
302.1
302.092
302.085
302.081
302.078
302.077
302.082
302.101
302.143
302.205
302.279
302.359
302.436
302.564
294.642
296.442
298.135
299.036
299.382
299.572
299.825
300.155
300.528
300.908
301.268
301.582
301.839
302.048
302.169
302.229
302.246
302.242
302.228
302.211
302.194
302.178
302.165
302.155
302.147
302.14
302.133
302.129
302.126
302.126
302.132
302.155
302.205
302.283
302.377
302.469
302.536
302.614
294.923
295.745
296.638
297.499
298.274
299.001
299.686
300.3
300.824
301.263
301.638
301.916
302.105
302.225
302.286
302.307
302.307
302.297
302.283
302.269
302.256
302.246
302.239
302.235
302.234
302.234
302.231
302.225
302.218
302.211
302.209
302.219
302.252
302.313
302.396
302.484
302.557
302.638
299.769
298.693
297.317
296.752
297.503
298.507
299.409
300.144
300.718
301.159
301.518
301.809
302.036
302.197
302.298
302.353
302.373
302.376
302.369
302.358
302.347
302.338
302.331
302.328
302.33
302.335
302.343
302.35
302.355
302.353
302.343
302.329
302.317
302.31
302.316
302.344
302.394
302.457
302.518
302.586
300.125
299.994
299.407
298.882
299.28
299.999
300.659
301.178
301.564
301.847
302.055
302.208
302.315
302.384
302.422
302.437
302.439
302.434
302.426
302.418
302.41
302.406
302.405
302.409
302.417
302.429
302.443
302.457
302.468
302.474
302.471
302.458
302.44
302.424
302.414
302.416
302.433
302.462
302.503
302.574
300.844
300.835
300.887
300.972
301.124
301.465
301.786
302.031
302.204
302.323
302.404
302.458
302.491
302.509
302.516
302.517
302.513
302.508
302.501
302.496
302.493
302.494
302.497
302.505
302.517
302.531
302.546
302.56
302.57
302.574
302.572
302.565
302.554
302.542
302.536
302.536
302.545
302.558
302.573
302.612
)
;

boundaryField
{
    floor
    {
        type            wallHeatTransfer;
        Tinf            uniform 305.2;
        alphaWall       uniform 0.36;
        value           nonuniform List<scalar> 
36
(
302.544
302.868
302.622
302.613
302.621
302.639
302.665
302.693
302.722
302.751
302.779
302.806
302.832
302.858
302.884
302.91
302.94
302.968
303.04
303.04
302.909
302.841
302.792
302.711
302.619
302.713
302.544
302.487
302.489
302.498
302.868
302.498
302.535
302.418
302.434
302.394
)
;
    }
    ceiling
    {
        type            wallHeatTransfer;
        Tinf            uniform 303.2;
        alphaWall       uniform 0.36;
        value           nonuniform List<scalar> 
43
(
301.032
301.047
301.096
301.169
301.304
301.619
301.918
302.147
302.309
302.422
302.501
302.555
302.59
302.61
302.619
302.621
302.618
302.613
302.607
302.601
302.598
302.597
302.6
302.605
302.614
302.624
302.635
302.644
302.65
302.651
302.646
302.637
302.625
302.612
302.604
302.601
302.606
302.617
302.627
302.664
304.19
304.016
295.883
)
;
    }
    sWall
    {
        type            wallHeatTransfer;
        Tinf            uniform 315.2;
        alphaWall       uniform 0.54;
        value           nonuniform List<scalar> 9(305.123 305.181 305.292 305.437 305.375 305.601 301.397 301.772 302.497);
    }
    nWall
    {
        type            wallHeatTransfer;
        Tinf            uniform 308.2;
        alphaWall       uniform 0.54;
        value           nonuniform List<scalar> 
14
(
303.574
303.432
303.29
303.302
303.323
303.329
303.252
303.231
303.287
303.357
303.381
303.276
303.239
303.322
)
;
    }
    sideWalls
    {
        type            empty;
    }
    glass1
    {
        type            wallHeatTransfer;
        Tinf            uniform 315.2;
        alphaWall       uniform 4.3;
        value           nonuniform List<scalar> 9(311.625 310.812 310.3 309.912 309.605 309.358 309.142 308.996 309.046);
    }
    glass2
    {
        type            wallHeatTransfer;
        Tinf            uniform 308.2;
        alphaWall       uniform 4.3;
        value           nonuniform List<scalar> 2(305.765 305.661);
    }
    sun
    {
        type            wallHeatTransfer;
        Tinf            uniform 305.2;
        alphaWall       uniform 0.36;
        value           nonuniform List<scalar> 
14
(
303.018
302.731
302.719
302.7
302.684
302.669
302.656
302.643
302.631
302.618
302.605
302.591
302.576
302.56
)
;
    }
    Table_master
    {
        type            zeroGradient;
    }
    Table_slave
    {
        type            zeroGradient;
    }
    inlet
    {
        type            fixedValue;
        value           uniform 293.15;
    }
    outlet
    {
        type            zeroGradient;
    }
}


// ************************************************************************* //
