/*--------------------------------*- C++ -*----------------------------------*\
  =========                 |
  \\      /  F ield         | OpenFOAM: The Open Source CFD Toolbox
   \\    /   O peration     | Website:  https://openfoam.org
    \\  /    A nd           | Version:  6
     \\/     M anipulation  |
\*---------------------------------------------------------------------------*/
FoamFile
{
    version     2.0;
    format      ascii;
    class       volVectorField;
    location    "35799.9999983062953";
    object      U;
}
// * * * * * * * * * * * * * * * * * * * * * * * * * * * * * * * * * * * * * //

dimensions      [0 1 -1 0 0 0 0];

internalField   nonuniform List<vector> 
778
(
(0.0656003 0.0794064 0)
(-0.155175 0.0157631 0)
(-0.164297 0.0146211 0)
(-0.192408 0.0122705 0)
(-0.216837 0.0087202 0)
(-0.236889 0.00473972 0)
(-0.252008 0.000413883 0)
(-0.261773 -0.00436989 0)
(-0.265669 -0.00981033 0)
(-0.262695 -0.0161881 0)
(-0.250895 -0.0242593 0)
(-0.226204 -0.0348759 0)
(-0.186091 -0.0503949 0)
(-0.144161 -0.0751611 0)
(-0.150039 -0.108547 0)
(0.0546819 0.0354981 0)
(0.0158126 -0.0268968 0)
(0.0450336 -0.0232817 0)
(0.0694761 -0.0161768 0)
(0.0845714 -0.0103663 0)
(0.0918002 -0.00641814 0)
(0.0946384 -0.00433709 0)
(0.0956699 -0.00331588 0)
(0.0961252 -0.00273011 0)
(0.0963008 -0.00231696 0)
(0.0961795 -0.00195183 0)
(0.0956535 -0.00151027 0)
(0.0943932 -0.000754949 0)
(0.0915398 0.000851532 0)
(0.0853223 0.00407949 0)
(0.0737559 0.00779568 0)
(0.0600485 0.0116507 0)
(-0.00785502 0.030029 0)
(0.258401 0.167392 0)
(-0.161234 0.0483888 0)
(-0.141598 0.0459732 0)
(-0.173996 0.0416046 0)
(-0.199351 0.0356556 0)
(-0.220062 0.0291162 0)
(-0.236083 0.0220463 0)
(-0.247327 0.0142193 0)
(-0.253499 0.00529156 0)
(-0.253817 -0.0051531 0)
(-0.247667 -0.0170793 0)
(-0.233969 -0.0308454 0)
(-0.214069 -0.0480709 0)
(-0.197498 -0.0699531 0)
(-0.193989 -0.0826285 0)
(-0.166393 -0.04253 0)
(-0.105357 -0.0363474 0)
(-0.09832 -0.0444532 0)
(0.109355 -0.0421629 0)
(0.0644903 -0.0412406 0)
(0.0719773 -0.0323409 0)
(0.0860079 -0.0207865 0)
(0.0939623 -0.0105268 0)
(0.0962289 -0.00365116 0)
(0.0959934 -0.000191044 0)
(0.0955978 0.00124883 0)
(0.0955562 0.00189012 0)
(0.0956352 0.00226254 0)
(0.0956429 0.00258712 0)
(0.0955438 0.00313305 0)
(0.0952533 0.00441847 0)
(0.0939949 0.00774067 0)
(0.0883911 0.0167895 0)
(0.0746113 0.0254006 0)
(0.0632212 0.0330557 0)
(-0.0518474 0.0636979 0)
(0.429982 0.253952 0)
(-0.194235 0.0847543 0)
(-0.112773 0.0784198 0)
(-0.148233 0.0669374 0)
(-0.170657 0.0554779 0)
(-0.188742 0.0437043 0)
(-0.202569 0.0313241 0)
(-0.212253 0.017994 0)
(-0.217599 0.00339441 0)
(-0.217955 -0.0126277 0)
(-0.212701 -0.0303141 0)
(-0.201598 -0.0498976 0)
(-0.185957 -0.0715615 0)
(-0.169415 -0.093209 0)
(-0.151036 -0.104558 0)
(-0.120195 -0.0931268 0)
(-0.0795026 -0.0949128 0)
(-0.0713965 -0.107562 0)
(0.092181 -0.0882282 0)
(0.0626152 -0.0658433 0)
(0.0744361 -0.0462335 0)
(0.0881065 -0.0293684 0)
(0.0950054 -0.0150409 0)
(0.0921524 -0.012069 0)
(0.0879111 -0.00795651 0)
(0.0855361 -0.00577773 0)
(0.0848425 -0.00455788 0)
(0.0848155 -0.00379924 0)
(0.0850666 -0.00322841 0)
(0.0857178 -0.00260015 0)
(0.0874823 -0.00143786 0)
(0.0921763 0.00292735 0)
(0.0903448 0.0251384 0)
(0.0735346 0.0424429 0)
(0.0702292 0.0576302 0)
(-0.0897965 0.101153 0)
(0.578549 0.325837 0)
(-0.240106 0.121803 0)
(-0.0808284 0.109205 0)
(-0.121564 0.0898292 0)
(-0.138991 0.0740398 0)
(-0.153044 0.0586046 0)
(-0.163795 0.0427245 0)
(-0.171382 0.025788 0)
(-0.175587 0.0071871 0)
(-0.175648 -0.0135308 0)
(-0.170959 -0.036461 0)
(-0.16139 -0.0614444 0)
(-0.147516 -0.0873659 0)
(-0.130524 -0.110301 0)
(-0.10955 -0.123198 0)
(-0.0820572 -0.124526 0)
(-0.0524337 -0.126341 0)
(-0.0332948 -0.123164 0)
(0.0164875 -0.0568119 0)
(0.0609189 -0.0930627 0)
(0.0685554 -0.0792636 0)
(0.0791622 -0.0589282 0)
(0.0916491 -0.0397099 0)
(0.102976 -0.021062 0)
(0.115732 -0.0132879 0)
(0.126959 -0.00886119 0)
(0.132623 -0.00563185 0)
(0.133654 -0.00311756 0)
(0.131167 -0.000890665 0)
(0.125734 0.00128061 0)
(0.117227 0.00366414 0)
(0.104878 0.00672336 0)
(0.0856291 0.0111603 0)
(0.0717385 0.0368596 0)
(0.0604504 0.0606496 0)
(0.0765022 0.083569 0)
(-0.117325 0.137613 0)
(0.705728 0.383675 0)
(-0.287683 0.156997 0)
(-0.0476913 0.13376 0)
(-0.0962825 0.106891 0)
(-0.107728 0.0875623 0)
(-0.116755 0.0691389 0)
(-0.123538 0.0504156 0)
(-0.128191 0.0305629 0)
(-0.130544 0.00870961 0)
(-0.129731 -0.0158224 0)
(-0.125227 -0.0430707 0)
(-0.116597 -0.0726759 0)
(-0.103861 -0.102825 0)
(-0.0873645 -0.129097 0)
(-0.0673907 -0.14579 0)
(-0.0440253 -0.152254 0)
(-0.020152 -0.152339 0)
(0.000400865 -0.143683 0)
(0.0309185 -0.114998 0)
(0.0570767 -0.109381 0)
(0.0706423 -0.0924955 0)
(0.0807617 -0.0713512 0)
(0.0908118 -0.0509191 0)
(0.100367 -0.0328868 0)
(0.109501 -0.0194836 0)
(0.116576 -0.0100899 0)
(0.120057 -0.00338628 0)
(0.120309 0.00187574 0)
(0.117939 0.00643118 0)
(0.11332 0.0107948 0)
(0.106476 0.0154772 0)
(0.0973415 0.02118 0)
(0.0854226 0.0292032 0)
(0.0738774 0.0472354 0)
(0.0634167 0.0713333 0)
(0.095104 0.099557 0)
(0.0173911 0.13879 0)
(0.0969956 0.182763 0)
(0.140352 0.145802 0)
(-0.220411 0.201576 0)
(0.810431 0.431968 0)
(-0.331321 0.190665 0)
(-0.0173125 0.150224 0)
(-0.0733586 0.117491 0)
(-0.0785796 0.0954767 0)
(-0.0821957 0.0749081 0)
(-0.0844447 0.0543074 0)
(-0.0854769 0.0326907 0)
(-0.0852157 0.00884171 0)
(-0.0825344 -0.0184149 0)
(-0.0773613 -0.0490181 0)
(-0.0687214 -0.0824942 0)
(-0.0567022 -0.116511 0)
(-0.0416076 -0.146335 0)
(-0.0245879 -0.166021 0)
(-0.00616679 -0.174502 0)
(0.0122299 -0.172723 0)
(0.0281525 -0.16097 0)
(0.0463063 -0.1393 0)
(0.0627361 -0.122346 0)
(0.0733823 -0.102534 0)
(0.0810364 -0.08052 0)
(0.0877803 -0.0592096 0)
(0.0939629 -0.0403551 0)
(0.0993194 -0.0251837 0)
(0.103055 -0.0138256 0)
(0.104716 -0.00512881 0)
(0.104347 0.00207092 0)
(0.102241 0.00855095 0)
(0.0986469 0.0148298 0)
(0.0937177 0.0214332 0)
(0.0876839 0.0289918 0)
(0.0808135 0.0384161 0)
(0.0750643 0.0528493 0)
(0.0698599 0.0728565 0)
(0.092077 0.0986076 0)
(0.0742422 0.107484 0)
(0.0912799 0.0479877 0)
(0.146532 -0.0354395 0)
(-0.322944 0.107058 0)
(0.879892 0.47468 0)
(-0.36864 0.220947 0)
(0.00371675 0.155528 0)
(-0.0526533 0.121537 0)
(-0.0521949 0.0978136 0)
(-0.0510082 0.075781 0)
(-0.0489979 0.0540057 0)
(-0.0464767 0.0315047 0)
(-0.0432833 0.00675344 0)
(-0.0373173 -0.0223036 0)
(-0.0302347 -0.0553615 0)
(-0.0204335 -0.0919399 0)
(-0.00859808 -0.128916 0)
(0.00465168 -0.161294 0)
(0.0177389 -0.181922 0)
(0.0305545 -0.190229 0)
(0.0423788 -0.187207 0)
(0.0526874 -0.174371 0)
(0.062642 -0.154012 0)
(0.0711902 -0.132372 0)
(0.0766822 -0.109389 0)
(0.0801123 -0.0859314 0)
(0.0826918 -0.0637985 0)
(0.0849285 -0.0443357 0)
(0.0867837 -0.0282605 0)
(0.0879215 -0.0154797 0)
(0.0881102 -0.00521627 0)
(0.0871962 0.00344675 0)
(0.0853515 0.0111924 0)
(0.0827184 0.018543 0)
(0.0794661 0.0259958 0)
(0.0758699 0.034047 0)
(0.0723358 0.0432427 0)
(0.0702554 0.0548596 0)
(0.0690533 0.0692776 0)
(0.0822086 0.0882334 0)
(0.0856744 0.0914758 0)
(0.0916187 0.0542304 0)
(0.181699 0.0273285 0)
(-0.278038 0.156807 0)
(0.927927 0.51714 0)
(-0.383153 0.23414 0)
(0.0168886 0.132926 0)
(-0.0273141 0.116608 0)
(-0.026535 0.0948746 0)
(-0.0227189 0.0723795 0)
(-0.0175972 0.050057 0)
(-0.0123146 0.0272111 0)
(-0.00533359 0.00182267 0)
(0.00464203 -0.030752 0)
(0.0143776 -0.0653338 0)
(0.0256964 -0.103349 0)
(0.0373621 -0.140895 0)
(0.0480591 -0.172189 0)
(0.0571677 -0.192375 0)
(0.0646727 -0.199831 0)
(0.0703986 -0.195368 0)
(0.0743458 -0.181136 0)
(0.0770239 -0.16003 0)
(0.0783513 -0.136039 0)
(0.0779529 -0.111056 0)
(0.0764128 -0.0865807 0)
(0.0745706 -0.064075 0)
(0.0729583 -0.0445297 0)
(0.0717181 -0.0283144 0)
(0.0707133 -0.0151435 0)
(0.0697398 -0.00431815 0)
(0.0685038 0.00493652 0)
(0.067094 0.0132026 0)
(0.0654758 0.0209653 0)
(0.0637176 0.0286469 0)
(0.0619941 0.0365914 0)
(0.0606014 0.0450678 0)
(0.0604197 0.0545054 0)
(0.0613656 0.0648055 0)
(0.0702875 0.0774896 0)
(0.0808265 0.08021 0)
(0.082632 0.0605079 0)
(0.23912 0.0570015 0)
(-0.543228 0.235381 0)
(1.01129 0.50679 0)
(-0.137116 0.296322 0)
(0.0410968 0.161475 0)
(0.0406468 0.122018 0)
(0.0131279 0.0918994 0)
(0.00870712 0.0652864 0)
(0.014144 0.0413132 0)
(0.0207846 0.0169091 0)
(0.0326095 -0.011078 0)
(0.0440909 -0.0421863 0)
(0.0559852 -0.0769374 0)
(0.0682836 -0.114672 0)
(0.0794382 -0.151152 0)
(0.0879472 -0.180624 0)
(0.0931666 -0.198635 0)
(0.0952107 -0.203768 0)
(0.0944876 -0.197076 0)
(0.0915438 -0.180993 0)
(0.0870551 -0.158574 0)
(0.0814733 -0.133146 0)
(0.0750958 -0.107145 0)
(0.0685302 -0.0823929 0)
(0.0625086 -0.0602364 0)
(0.0575607 -0.0413906 0)
(0.053885 -0.0259292 0)
(0.0513778 -0.0133478 0)
(0.0497593 -0.0028671 0)
(0.0486253 0.00620787 0)
(0.0479149 0.0143815 0)
(0.0473892 0.022095 0)
(0.0469757 0.0296838 0)
(0.046694 0.0373633 0)
(0.0466402 0.0452175 0)
(0.0472202 0.0532542 0)
(0.0484306 0.0609627 0)
(0.0540776 0.0682515 0)
(0.0651523 0.0646842 0)
(0.0632959 0.0347967 0)
(0.287491 0.0704524 0)
(-0.746543 0.308965 0)
(0.779312 0.395625 0)
(0.000981427 0.319444 0)
(0.0934476 0.218869 0)
(0.110684 0.155098 0)
(0.0772568 0.106728 0)
(0.0598735 0.0674332 0)
(0.0582984 0.0356411 0)
(0.0624828 0.00629622 0)
(0.0739376 -0.0235359 0)
(0.0855353 -0.0551224 0)
(0.0977577 -0.0898172 0)
(0.109644 -0.126324 0)
(0.119029 -0.160113 0)
(0.12413 -0.185824 0)
(0.124349 -0.199874 0)
(0.120116 -0.201429 0)
(0.112381 -0.191859 0)
(0.102218 -0.173724 0)
(0.0906654 -0.150065 0)
(0.0785639 -0.123926 0)
(0.066607 -0.097854 0)
(0.0555373 -0.0737693 0)
(0.0460953 -0.0529139 0)
(0.0387721 -0.0357236 0)
(0.0336866 -0.0219668 0)
(0.0305978 -0.0108476 0)
(0.0290301 -0.00144498 0)
(0.0285006 0.00687676 0)
(0.0286943 0.0145683 0)
(0.0292609 0.022001 0)
(0.0300298 0.0294167 0)
(0.0308735 0.0369572 0)
(0.031633 0.04466 0)
(0.0321017 0.0524706 0)
(0.0313002 0.0599617 0)
(0.029455 0.0666699 0)
(0.013662 0.0671352 0)
(0.00379159 0.100405 0)
(0.0220612 0.178354 0)
(-0.63425 0.303486 0)
(0.617233 0.220623 0)
(0.00478897 0.29802 0)
(0.113082 0.241488 0)
(0.148366 0.177472 0)
(0.130944 0.123392 0)
(0.117927 0.0776928 0)
(0.115077 0.038736 0)
(0.117267 0.00323731 0)
(0.123662 -0.0308666 0)
(0.13192 -0.0651263 0)
(0.141635 -0.100591 0)
(0.150536 -0.135451 0)
(0.155675 -0.165321 0)
(0.15512 -0.185845 0)
(0.148559 -0.194707 0)
(0.136894 -0.191932 0)
(0.121593 -0.179266 0)
(0.104157 -0.15929 0)
(0.085956 -0.134924 0)
(0.0680906 -0.108968 0)
(0.051512 -0.0839202 0)
(0.0371111 -0.0616572 0)
(0.0256637 -0.0432691 0)
(0.0174965 -0.0288097 0)
(0.0124284 -0.0176484 0)
(0.00980841 -0.00860031 0)
(0.00890113 -0.000669996 0)
(0.00923652 0.006662 0)
(0.0102987 0.0137405 0)
(0.0118097 0.0208243 0)
(0.0135891 0.0280738 0)
(0.0154479 0.0356362 0)
(0.0170862 0.0436755 0)
(0.017984 0.0524653 0)
(0.0168158 0.0623938 0)
(0.0127322 0.0749202 0)
(-0.0155698 0.0998791 0)
(-0.0154382 0.153529 0)
(0.00144048 0.185351 0)
(-0.542036 0.172975 0)
(0.570785 0.118208 0)
(-0.0202558 0.258516 0)
(0.113715 0.22983 0)
(0.165068 0.175972 0)
(0.166747 0.126054 0)
(0.164427 0.080936 0)
(0.16544 0.0397871 0)
(0.168417 0.00143274 0)
(0.172402 -0.0355732 0)
(0.178009 -0.0720572 0)
(0.184207 -0.107687 0)
(0.18792 -0.139711 0)
(0.186124 -0.164251 0)
(0.177442 -0.178479 0)
(0.162321 -0.181589 0)
(0.142303 -0.174474 0)
(0.119317 -0.159162 0)
(0.0951116 -0.138099 0)
(0.0712735 -0.114018 0)
(0.0490202 -0.0894237 0)
(0.0295288 -0.0667408 0)
(0.0138367 -0.0477312 0)
(0.00262126 -0.0331621 0)
(-0.00440561 -0.0223157 0)
(-0.00799618 -0.0142541 0)
(-0.00949948 -0.00733055 0)
(-0.00959846 -0.00082157 0)
(-0.00858498 0.00556821 0)
(-0.00693645 0.0120227 0)
(-0.00476253 0.018686 0)
(-0.00219809 0.025676 0)
(0.000658545 0.0332607 0)
(0.00355582 0.0416977 0)
(0.00610597 0.0516709 0)
(0.00740935 0.0645369 0)
(0.00810069 0.0834805 0)
(-0.00909388 0.119793 0)
(-0.0123767 0.188694 0)
(0.103637 0.200109 0)
(-0.494159 0.0648307 0)
(0.628503 0.0534277 0)
(0.00913373 0.197229 0)
(0.113717 0.196907 0)
(0.175038 0.157841 0)
(0.191312 0.117542 0)
(0.198 0.0770788 0)
(0.203372 0.0370415 0)
(0.208625 -0.00176128 0)
(0.213177 -0.039893 0)
(0.217529 -0.0767145 0)
(0.219381 -0.110086 0)
(0.215574 -0.136859 0)
(0.204221 -0.154427 0)
(0.185416 -0.161787 0)
(0.160774 -0.15949 0)
(0.132451 -0.148933 0)
(0.102671 -0.13218 0)
(0.0731289 -0.111331 0)
(0.045583 -0.0889325 0)
(0.0211906 -0.0671725 0)
(0.00156233 -0.0484696 0)
(-0.0122716 -0.0344935 0)
(-0.0203477 -0.0252052 0)
(-0.0247939 -0.0183106 0)
(-0.0268513 -0.0125388 0)
(-0.0274102 -0.00709019 0)
(-0.0268995 -0.00162353 0)
(-0.0254508 0.00400325 0)
(-0.0234453 0.00986306 0)
(-0.0208635 0.0160321 0)
(-0.0177878 0.0226011 0)
(-0.014233 0.0297894 0)
(-0.0101998 0.0380048 0)
(-0.00575562 0.0481101 0)
(-0.00137368 0.0622122 0)
(0.00429038 0.0851439 0)
(0.00329276 0.122585 0)
(-0.00384049 0.187483 0)
(0.165561 0.203655 0)
(-0.366775 0.105785 0)
(0.47217 0.0747819 0)
(-0.132235 0.137527 0)
(0.0941133 0.133219 0)
(0.172574 0.116673 0)
(0.203696 0.0951592 0)
(0.218008 0.064147 0)
(0.228036 0.0280913 0)
(0.23716 -0.00927635 0)
(0.243583 -0.0455928 0)
(0.245121 -0.0784831 0)
(0.239167 -0.105304 0)
(0.22438 -0.124 0)
(0.201289 -0.133715 0)
(0.171813 -0.134883 0)
(0.138519 -0.12874 0)
(0.103681 -0.116548 0)
(0.0695576 -0.100148 0)
(0.037326 -0.081169 0)
(0.00931599 -0.0621432 0)
(-0.0138345 -0.0449907 0)
(-0.0284253 -0.0336082 0)
(-0.0373768 -0.0259929 0)
(-0.0423732 -0.0205679 0)
(-0.0449733 -0.0160475 0)
(-0.0459686 -0.0118126 0)
(-0.0458159 -0.00748286 0)
(-0.044768 -0.00287615 0)
(-0.0428869 0.00209835 0)
(-0.0406029 0.00740687 0)
(-0.0378088 0.0130642 0)
(-0.03457 0.019143 0)
(-0.030903 0.0257872 0)
(-0.0267413 0.0333389 0)
(-0.0220881 0.0428181 0)
(-0.0175968 0.0572472 0)
(-0.0125609 0.0805837 0)
(-0.00546807 0.110124 0)
(-0.00296215 0.153969 0)
(0.185499 0.181731 0)
(-0.326469 0.170274 0)
(0.723909 0.134487 0)
(0.0819287 0.115242 0)
(0.149697 0.0991515 0)
(0.222289 0.0803612 0)
(0.243937 0.0697211 0)
(0.248745 0.0473776 0)
(0.25508 0.0172088 0)
(0.261198 -0.0150423 0)
(0.260223 -0.0450105 0)
(0.249726 -0.0697961 0)
(0.229496 -0.0877097 0)
(0.201135 -0.0982801 0)
(0.167032 -0.101807 0)
(0.129732 -0.0992643 0)
(0.0917007 -0.0918795 0)
(0.0543578 -0.0803144 0)
(0.0202855 -0.0661776 0)
(-0.0109405 -0.0506049 0)
(-0.0334396 -0.0383447 0)
(-0.0485674 -0.0298678 0)
(-0.0577542 -0.0245696 0)
(-0.063256 -0.0208433 0)
(-0.0664019 -0.0178071 0)
(-0.0679684 -0.0148986 0)
(-0.0683043 -0.0118541 0)
(-0.0676045 -0.00848551 0)
(-0.0660201 -0.00464155 0)
(-0.0636654 -0.000210978 0)
(-0.0608747 0.00473501 0)
(-0.0579763 0.010091 0)
(-0.0549475 0.0159198 0)
(-0.0520406 0.0223636 0)
(-0.0494984 0.0298487 0)
(-0.0474804 0.0397306 0)
(-0.0464971 0.0547548 0)
(-0.0465985 0.0754341 0)
(-0.0416623 0.0939433 0)
(-0.0245106 0.108074 0)
(0.157654 0.1558 0)
(-0.427278 0.232324 0)
(0.192066 0.0879585 0)
(0.22586 0.0996967 0)
(0.246586 0.0699511 0)
(0.242634 0.039516 0)
(0.239779 0.0118224 0)
(0.234696 -0.0131174 0)
(0.21991 -0.0335316 0)
(0.196161 -0.0486599 0)
(0.165833 -0.0584903 0)
(0.131399 -0.0634674 0)
(0.0946677 -0.0638917 0)
(0.057567 -0.0604583 0)
(0.0219978 -0.0539812 0)
(-0.0126903 -0.0445514 0)
(-0.0399173 -0.0353989 0)
(-0.0604889 -0.0279607 0)
(-0.0744353 -0.0232324 0)
(-0.0835076 -0.0203648 0)
(-0.0893733 -0.0185671 0)
(-0.0932695 -0.0170537 0)
(-0.0957644 -0.015534 0)
(-0.0970964 -0.0138574 0)
(-0.0973452 -0.0119064 0)
(-0.0965408 -0.00953638 0)
(-0.0947234 -0.00656567 0)
(-0.0919718 -0.00279257 0)
(-0.0883419 0.00188926 0)
(-0.0848491 0.00728979 0)
(-0.0816048 0.0134085 0)
(-0.0790083 0.0205438 0)
(-0.0775287 0.029297 0)
(-0.0771749 0.0409848 0)
(-0.0786056 0.0574625 0)
(-0.0851398 0.0785895 0)
(-0.0938463 0.0978636 0)
(-0.0831031 0.112195 0)
(-0.0626464 0.154603 0)
(-0.528002 0.219057 0)
(0.451507 0.209298 0)
(0.207172 0.178606 0)
(0.153383 0.118726 0)
(0.140013 0.0639389 0)
(0.128406 0.0257904 0)
(0.114146 0.00173705 0)
(0.0986646 -0.0129931 0)
(0.0775791 -0.022201 0)
(0.052938 -0.0279684 0)
(0.0259066 -0.0306463 0)
(-0.00369335 -0.0301239 0)
(-0.0325122 -0.0272793 0)
(-0.0581007 -0.0233457 0)
(-0.0795382 -0.0194078 0)
(-0.0955341 -0.0167128 0)
(-0.106859 -0.015055 0)
(-0.114741 -0.0142415 0)
(-0.120577 -0.0136635 0)
(-0.125153 -0.0131123 0)
(-0.128782 -0.0125317 0)
(-0.131521 -0.0119364 0)
(-0.133336 -0.0113134 0)
(-0.134144 -0.010601 0)
(-0.13383 -0.00965892 0)
(-0.132274 -0.00823233 0)
(-0.129404 -0.00593622 0)
(-0.125237 -0.00232583 0)
(-0.119796 0.00286021 0)
(-0.114644 0.00936594 0)
(-0.110202 0.0173031 0)
(-0.106486 0.0273029 0)
(-0.102818 0.0405226 0)
(-0.0983608 0.0584032 0)
(-0.0958046 0.0819964 0)
(-0.095617 0.110484 0)
(-0.0667633 0.136388 0)
(-0.0425978 0.131459 0)
(-0.587511 0.0509705 0)
(0.363494 -0.413015 0)
(-0.345601 -0.512729 0)
(-0.218689 -0.0285848 0)
(-0.092361 0.110797 0)
(-0.0532778 0.0926789 0)
(-0.0311097 0.0547565 0)
(-0.0264397 0.0286553 0)
(-0.0315839 0.0119255 0)
(-0.0405128 0.00101282 0)
(-0.0509777 -0.00627072 0)
(-0.0645187 -0.0108213 0)
(-0.0796855 -0.0134068 0)
(-0.0952992 -0.0151426 0)
(-0.11022 -0.017112 0)
(-0.123334 -0.0195532 0)
(-0.133707 -0.0222346 0)
(-0.141325 -0.0247933 0)
(-0.147173 -0.0266969 0)
(-0.152225 -0.0279783 0)
(-0.156989 -0.0287567 0)
(-0.161519 -0.0291239 0)
(-0.165675 -0.0291083 0)
(-0.16927 -0.0287102 0)
(-0.172105 -0.0279093 0)
(-0.17395 -0.0266666 0)
(-0.174544 -0.0249131 0)
(-0.173636 -0.022518 0)
(-0.171067 -0.019239 0)
(-0.166845 -0.0146825 0)
(-0.161116 -0.00836033 0)
(-0.153891 4.82857e-05 0)
(-0.146514 0.0103247 0)
(-0.139098 0.02199 0)
(-0.130002 0.0353741 0)
(-0.11692 0.051377 0)
(-0.0981907 0.0706577 0)
(-0.0731045 0.0955254 0)
(-0.0292506 0.130361 0)
(0.129695 0.137393 0)
(-0.422251 0.0396141 0)
(0.125252 -0.184305 0)
(-0.387155 -0.29716 0)
(-0.342815 -0.0967638 0)
(-0.264493 0.0513934 0)
(-0.21084 0.0836349 0)
(-0.178745 0.074762 0)
(-0.162498 0.0612801 0)
(-0.156526 0.0512615 0)
(-0.156602 0.0459846 0)
(-0.159851 0.0452193 0)
(-0.164251 0.0480794 0)
(-0.168406 0.053453 0)
(-0.171705 0.060092 0)
(-0.173981 0.0660727 0)
(-0.175755 0.0695362 0)
(-0.177626 0.0708424 0)
(-0.180055 0.0709245 0)
(-0.183032 0.0706856 0)
(-0.186335 0.0702822 0)
(-0.189756 0.0694857 0)
(-0.193137 0.0680531 0)
(-0.196354 0.0658397 0)
(-0.199305 0.0627468 0)
(-0.201896 0.058675 0)
(-0.204032 0.0535544 0)
(-0.205617 0.0474718 0)
(-0.206555 0.0408244 0)
(-0.206735 0.0343598 0)
(-0.205991 0.0290148 0)
(-0.204048 0.0256284 0)
(-0.200367 0.024647 0)
(-0.19375 0.0256305 0)
(-0.184641 0.0272496 0)
(-0.172515 0.0295831 0)
(-0.154825 0.0329669 0)
(-0.128374 0.0357167 0)
(-0.0882186 0.0355587 0)
(-0.0264028 0.0389205 0)
(0.170612 0.0726232 0)
(-0.371449 0.104392 0)
(1.14632 -0.0111393 0)
(-0.294208 -0.32253 0)
(-0.352533 -0.233713 0)
(-0.351847 -0.14935 0)
(-0.328138 -0.107901 0)
(-0.296388 -0.099236 0)
(-0.268919 -0.101375 0)
(-0.248867 -0.107089 0)
(-0.23536 -0.114886 0)
(-0.2265 -0.124849 0)
(-0.220626 -0.137313 0)
(-0.216591 -0.152073 0)
(-0.2137 -0.167584 0)
(-0.211719 -0.181131 0)
(-0.210803 -0.19011 0)
(-0.211201 -0.194748 0)
(-0.212741 -0.196191 0)
(-0.215054 -0.19589 0)
(-0.217804 -0.194738 0)
(-0.220862 -0.193055 0)
(-0.224301 -0.190826 0)
(-0.228293 -0.18788 0)
(-0.233041 -0.183972 0)
(-0.238759 -0.178847 0)
(-0.245674 -0.172271 0)
(-0.253985 -0.16406 0)
(-0.263744 -0.154107 0)
(-0.274648 -0.142422 0)
(-0.285864 -0.129168 0)
(-0.296002 -0.11464 0)
(-0.303287 -0.0991624 0)
(-0.305855 -0.0830477 0)
(-0.30175 -0.0667356 0)
(-0.291505 -0.0519981 0)
(-0.276752 -0.039371 0)
(-0.257422 -0.0283353 0)
(-0.227341 -0.016892 0)
(-0.17733 0.00535162 0)
(-0.15942 0.0530401 0)
(-0.56734 0.109429 0)
)
;

boundaryField
{
    floor
    {
        type            noSlip;
    }
    ceiling
    {
        type            noSlip;
    }
    sWall
    {
        type            noSlip;
    }
    nWall
    {
        type            noSlip;
    }
    sideWalls
    {
        type            empty;
    }
    glass1
    {
        type            noSlip;
    }
    glass2
    {
        type            noSlip;
    }
    sun
    {
        type            noSlip;
    }
    Table_master
    {
        type            noSlip;
    }
    Table_slave
    {
        type            noSlip;
    }
    inlet
    {
        type            fixedValue;
        value           uniform (0.5 0 0);
    }
    outlet
    {
        type            zeroGradient;
    }
}


// ************************************************************************* //
