/*--------------------------------*- C++ -*----------------------------------*\
  =========                 |
  \\      /  F ield         | OpenFOAM: The Open Source CFD Toolbox
   \\    /   O peration     | Website:  https://openfoam.org
    \\  /    A nd           | Version:  6
     \\/     M anipulation  |
\*---------------------------------------------------------------------------*/
FoamFile
{
    version     2.0;
    format      ascii;
    class       volScalarField;
    location    "550";
    object      epsilon;
}
// * * * * * * * * * * * * * * * * * * * * * * * * * * * * * * * * * * * * * //

dimensions      [0 2 -3 0 0 0 0];

internalField   nonuniform List<scalar> 
775
(
2.49975e-05
3.51197e-05
3.94171e-05
4.66361e-05
5.36716e-05
6.04693e-05
6.71404e-05
7.38761e-05
8.09979e-05
8.81797e-05
9.38768e-05
9.74166e-05
9.85813e-05
9.82705e-05
9.75169e-05
4.68036e-06
6.8941e-06
7.66307e-06
7.11815e-06
6.78037e-06
6.91345e-06
7.24216e-06
7.71234e-06
8.25231e-06
9.21224e-06
9.34437e-06
7.94534e-06
5.17103e-06
2.09339e-05
5.33719e-05
0.000125641
0.000184851
0.000111915
6.01144e-05
7.42664e-05
3.6889e-05
3.7582e-05
3.87957e-05
4.0233e-05
4.21791e-05
4.49706e-05
4.89238e-05
5.39366e-05
5.91611e-05
6.40104e-05
6.81797e-05
7.32062e-05
8.64815e-05
0.000123288
9.24223e-05
7.00856e-05
8.06271e-06
1.93588e-05
1.33342e-05
1.1977e-05
9.89967e-06
8.03249e-06
7.06846e-06
7.21279e-06
8.19389e-06
9.99805e-06
1.171e-05
1.36013e-05
6.20966e-06
2.22936e-05
5.72944e-05
0.000152837
0.000412966
0.0002709
0.000106529
0.000144492
4.23908e-05
3.76839e-05
3.75484e-05
3.88527e-05
4.14543e-05
4.54529e-05
5.08217e-05
5.72746e-05
6.40943e-05
7.03199e-05
7.49945e-05
7.82353e-05
8.19999e-05
8.63874e-05
8.74274e-05
0.000155771
5.05354e-05
3.15313e-05
2.25637e-05
1.73645e-05
1.43268e-05
1.25527e-05
1.18629e-05
1.19188e-05
1.24215e-05
1.35346e-05
1.62133e-05
2.0151e-05
1.87413e-05
4.69657e-05
8.45984e-05
0.000255646
0.0008968
0.000487273
0.000162786
0.000244571
5.13364e-05
3.89963e-05
3.79696e-05
3.95749e-05
4.28408e-05
4.77037e-05
5.41011e-05
6.17968e-05
7.00696e-05
7.76906e-05
8.33426e-05
8.65092e-05
8.75651e-05
8.59425e-05
8.12168e-05
9.16877e-05
0.000149682
6.98822e-05
4.20635e-05
2.92153e-05
2.17792e-05
1.72869e-05
1.47028e-05
1.35267e-05
1.36815e-05
1.48698e-05
1.66278e-05
2.2278e-05
4.25288e-05
4.39529e-05
7.31458e-05
0.000116927
0.000414044
0.0015788
0.000756891
0.000227887
0.000375081
6.38751e-05
4.0192e-05
3.79298e-05
3.98087e-05
4.36804e-05
4.93979e-05
5.699e-05
6.63164e-05
7.6545e-05
8.59835e-05
9.28458e-05
9.62448e-05
9.60397e-05
9.18663e-05
8.4094e-05
7.88434e-05
7.6579e-05
5.84929e-05
4.6696e-05
3.70249e-05
2.88164e-05
2.26642e-05
1.84091e-05
1.57236e-05
1.43313e-05
1.38952e-05
1.41078e-05
1.59479e-05
3.02654e-05
6.17374e-05
9.73999e-05
0.000132563
0.00054133
0.00226869
0.00105268
0.00030199
0.000538128
8.12221e-05
4.11416e-05
3.70189e-05
3.90425e-05
4.34866e-05
5.01708e-05
5.93424e-05
7.10688e-05
8.41823e-05
9.60275e-05
0.000104124
0.000107448
0.000105882
9.96578e-05
8.98908e-05
8.01678e-05
7.08481e-05
5.97229e-05
5.02713e-05
4.1886e-05
3.41712e-05
2.75732e-05
2.23513e-05
1.84883e-05
1.5813e-05
1.40484e-05
1.29117e-05
1.25947e-05
1.57194e-05
4.01616e-05
7.00816e-05
5.84948e-05
6.12127e-05
7.61626e-05
0.000122596
0.00059339
0.00274742
0.00139139
0.000386729
0.000728204
0.000104884
4.20136e-05
3.52595e-05
3.71778e-05
4.20864e-05
4.98845e-05
6.13046e-05
7.69019e-05
9.44496e-05
0.000109451
0.000118687
0.000121442
0.000117965
0.000109055
9.71127e-05
8.47488e-05
7.28485e-05
6.16779e-05
5.21093e-05
4.39408e-05
3.6795e-05
3.04466e-05
2.50751e-05
2.07522e-05
1.74237e-05
1.49326e-05
1.30929e-05
1.18816e-05
1.1825e-05
1.47489e-05
2.16096e-05
3.92752e-05
5.61815e-05
5.0446e-05
0.000134045
0.000725925
0.00354104
0.0014843
0.000496025
0.000914009
0.000136707
4.32456e-05
3.29922e-05
3.43652e-05
3.94019e-05
4.83381e-05
6.31007e-05
8.55232e-05
0.000109566
0.000128156
0.000137946
0.000139194
0.000132742
0.000120802
0.000105781
9.00912e-05
7.5385e-05
6.25655e-05
5.20392e-05
4.35738e-05
3.66959e-05
3.08754e-05
2.5897e-05
2.17368e-05
1.83603e-05
1.56912e-05
1.363e-05
1.2126e-05
1.12673e-05
1.12792e-05
1.21927e-05
1.49888e-05
2.03072e-05
3.79571e-05
0.000166833
0.00100863
0.0030928
0.00144987
0.000724019
0.00117413
0.000196162
4.71048e-05
3.10528e-05
3.10957e-05
3.55828e-05
4.54716e-05
6.6164e-05
0.00010119
0.000133204
0.000154591
0.000163401
0.000161628
0.000151358
0.000134982
0.000115393
9.55212e-05
7.75117e-05
6.24756e-05
5.06392e-05
4.16104e-05
3.47465e-05
2.93933e-05
2.49956e-05
2.13371e-05
1.83066e-05
1.58321e-05
1.38501e-05
1.23112e-05
1.11919e-05
1.04652e-05
1.01085e-05
1.04856e-05
1.33782e-05
3.12072e-05
0.000156928
0.000838656
0.00316632
0.00170704
0.00142025
0.00385437
0.000513743
6.98748e-05
3.18954e-05
2.87289e-05
3.18353e-05
4.26146e-05
7.90524e-05
0.000132614
0.000170739
0.000191547
0.000197195
0.000190445
0.000174019
0.00015111
0.000125419
0.000100489
7.87964e-05
6.14234e-05
4.83077e-05
3.87478e-05
3.18603e-05
2.68585e-05
2.30287e-05
1.99696e-05
1.7457e-05
1.53736e-05
1.36519e-05
1.22465e-05
1.11235e-05
1.02533e-05
9.65756e-06
9.68877e-06
1.22788e-05
3.0967e-05
0.000170575
0.000964734
0.00407414
0.00218094
0.00240291
0.00991095
0.00165221
0.000181258
4.69832e-05
3.33361e-05
3.54917e-05
5.4854e-05
0.000124618
0.000189745
0.000229429
0.000245193
0.000242695
0.000226525
0.000200408
0.000168379
0.000134931
0.000104174
7.87048e-05
5.92803e-05
4.52928e-05
3.5536e-05
2.87936e-05
2.41259e-05
2.08147e-05
1.83298e-05
1.63552e-05
1.47202e-05
1.33359e-05
1.21551e-05
1.11534e-05
1.03281e-05
9.75089e-06
9.83104e-06
1.27863e-05
3.50787e-05
0.000210847
0.0012429
0.00545725
0.00261417
0.00384845
0.0153518
0.00381033
0.000605627
0.000164825
9.17272e-05
8.38589e-05
0.00014069
0.000237708
0.000299077
0.000323245
0.000321141
0.000301434
0.00026941
0.000229073
0.000184985
0.000142265
0.000105389
7.66719e-05
5.60784e-05
4.20824e-05
3.27611e-05
2.65036e-05
2.22308e-05
1.93747e-05
1.73677e-05
1.58534e-05
1.46243e-05
1.35666e-05
1.26245e-05
1.17795e-05
1.10511e-05
1.05555e-05
1.08149e-05
1.46565e-05
4.36665e-05
0.000269299
0.00155747
0.00668549
0.00307022
0.00558427
0.0167844
0.00618327
0.00198881
0.000876843
0.000494466
0.000377898
0.000442849
0.000484124
0.000485358
0.000460532
0.000420713
0.000371495
0.000315675
0.000256115
0.000197366
0.000144789
0.000102761
7.25323e-05
5.25487e-05
3.99352e-05
3.19237e-05
2.65841e-05
2.28208e-05
2.02174e-05
1.84954e-05
1.7289e-05
1.63577e-05
1.55526e-05
1.47982e-05
1.40738e-05
1.34161e-05
1.29972e-05
1.35458e-05
1.89866e-05
5.86865e-05
0.000345343
0.00186786
0.00758416
0.00354968
0.00596396
0.0158389
0.00851132
0.0050577
0.00304202
0.00190308
0.00136027
0.00107378
0.000884818
0.000744948
0.00063185
0.000533303
0.00044227
0.000355448
0.00027321
0.000199551
0.000139245
9.56689e-05
6.7542e-05
5.08974e-05
4.13503e-05
3.55065e-05
3.14853e-05
2.83671e-05
2.57538e-05
2.40714e-05
2.30189e-05
2.22972e-05
2.16822e-05
2.10594e-05
2.04006e-05
1.97719e-05
1.94604e-05
2.06353e-05
2.93955e-05
8.72913e-05
0.000450624
0.00220348
0.00835368
0.00396565
0.00533339
0.0091226
0.00755426
0.00547975
0.00392637
0.00283182
0.00210403
0.00159663
0.00123829
0.000977685
0.000779123
0.000619186
0.000484222
0.000367185
0.000266258
0.000184491
0.000124231
8.67206e-05
6.58347e-05
5.5181e-05
4.98652e-05
4.66455e-05
4.43481e-05
4.24154e-05
4.05072e-05
3.85997e-05
3.77543e-05
3.74462e-05
3.72372e-05
3.69354e-05
3.65181e-05
3.6161e-05
3.6469e-05
3.96432e-05
5.60865e-05
0.000144813
0.000603216
0.00257549
0.00900552
0.00431499
0.00398148
0.00577983
0.00373577
0.00268591
0.00203823
0.00158905
0.00124271
0.000975123
0.000761138
0.000585817
0.000441345
0.000321661
0.000224454
0.000153713
0.000106854
8.50291e-05
7.50205e-05
7.05184e-05
6.87358e-05
6.82917e-05
6.85874e-05
6.92697e-05
7.00605e-05
7.05384e-05
7.07689e-05
7.20469e-05
7.36145e-05
7.50395e-05
7.63483e-05
7.8173e-05
8.19845e-05
9.22324e-05
0.000126515
0.000263345
0.000846041
0.00308183
0.00943081
0.0046458
0.00320334
0.00313186
0.0022617
0.00171274
0.00135336
0.00110242
0.000917204
0.000745972
0.000586777
0.000450866
0.00034023
0.000248633
0.000176581
0.000134974
0.00011284
0.000103159
9.96123e-05
9.92997e-05
0.000101009
0.000104216
0.000108681
0.000114246
0.000120786
0.00012817
0.000136106
0.000143992
0.000152341
0.000161139
0.000170582
0.000182913
0.000201588
0.000236381
0.000317074
0.000534845
0.00121221
0.00352986
0.00973911
0.00499356
0.00554767
0.0174635
0.00634118
0.00262403
0.00145811
0.00106635
0.000886028
0.000758868
0.000647155
0.000524494
0.000414252
0.000333017
0.000270357
0.000219425
0.00018207
0.000160674
0.000150592
0.000147255
0.000147715
0.000150781
0.000156055
0.000163484
0.000173188
0.00018538
0.000200369
0.000218563
0.000240446
0.000266536
0.000297348
0.000333489
0.000375589
0.000424266
0.000484848
0.000575711
0.000741213
0.00106832
0.00182862
0.00408655
0.00903768
0.00565324
0.00559056
0.0120349
0.00340706
0.00171775
0.00108375
0.000835802
0.000715426
0.000614588
0.000518157
0.000413675
0.000331218
0.000279123
0.000244854
0.000220516
0.000204495
0.000196475
0.000195021
0.000198584
0.000206132
0.000217142
0.000231463
0.000249228
0.000270804
0.0002968
0.000328112
0.000365984
0.000412089
0.000468649
0.000538587
0.000625726
0.00073501
0.000873014
0.0010493
0.00128032
0.00160321
0.00210038
0.00292147
0.00465739
0.00896368
0.00532427
0.00174501
0.00156447
0.00115687
0.00096176
0.000773672
0.000641939
0.00052991
0.000411246
0.000303668
0.000239739
0.000199396
0.000176888
0.000165393
0.000161685
0.000164348
0.000172089
0.000183698
0.000198435
0.00021603
0.000236561
0.000260364
0.000287998
0.000320271
0.00035828
0.000403491
0.000457837
0.000523843
0.000604777
0.000704844
0.000829462
0.000985709
0.00118305
0.00143463
0.00175937
0.00218549
0.0027552
0.0035266
0.00456349
0.00586775
0.00415461
)
;

boundaryField
{
    floor
    {
        Cmu             0.09;
        kappa           0.41;
        E               9.8;
        type            epsilonWallFunction;
        value           nonuniform List<scalar> 
42
(
9.75169e-05
4.68036e-06
6.8941e-06
7.66307e-06
7.11815e-06
6.78037e-06
6.91345e-06
7.24216e-06
7.71234e-06
8.25231e-06
9.21224e-06
9.34437e-06
7.94534e-06
5.17103e-06
2.09339e-05
5.33719e-05
0.000125641
0.000184851
0.000111915
5.17103e-06
2.09339e-05
6.20966e-06
2.22936e-05
1.87413e-05
4.69657e-05
4.39529e-05
7.31458e-05
6.17374e-05
7.00816e-05
5.84948e-05
9.73999e-05
6.12127e-05
9.75169e-05
0.000123288
9.24223e-05
7.00856e-05
4.68036e-06
7.00856e-05
8.06271e-06
0.000155771
5.05354e-05
0.000149682
)
;
    }
    ceiling
    {
        Cmu             0.09;
        kappa           0.41;
        E               9.8;
        type            epsilonWallFunction;
        value           nonuniform List<scalar> 
43
(
0.00174501
0.00156447
0.00115687
0.00096176
0.000773672
0.000641939
0.00052991
0.000411246
0.000303668
0.000239739
0.000199396
0.000176888
0.000165393
0.000161685
0.000164348
0.000172089
0.000183698
0.000198435
0.00021603
0.000236561
0.000260364
0.000287998
0.000320271
0.00035828
0.000403491
0.000457837
0.000523843
0.000604777
0.000704844
0.000829462
0.000985709
0.00118305
0.00143463
0.00175937
0.00218549
0.0027552
0.0035266
0.00456349
0.00586775
0.00415461
0.00533339
0.0091226
0.00320334
)
;
    }
    sWall
    {
        Cmu             0.09;
        kappa           0.41;
        E               9.8;
        type            epsilonWallFunction;
        value           nonuniform List<scalar> 9(0.00142025 0.00240291 0.00384845 0.00558427 0.00596396 0.00533339 0.00554767 0.00559056 0.00174501);
    }
    nWall
    {
        Cmu             0.09;
        kappa           0.41;
        E               9.8;
        type            epsilonWallFunction;
        value           nonuniform List<scalar> 
18
(
0.000111915
0.0002709
0.000487273
0.000756891
0.00105268
0.00139139
0.0014843
0.00218094
0.00261417
0.00307022
0.00354968
0.00396565
0.00431499
0.0046458
0.00499356
0.00565324
0.00532427
0.00415461
)
;
    }
    sideWalls
    {
        type            empty;
    }
    glass1
    {
        Cmu             0.09;
        kappa           0.41;
        E               9.8;
        type            epsilonWallFunction;
        value           nonuniform List<scalar> 9(2.49975e-05 6.01144e-05 0.000106529 0.000162786 0.000227887 0.00030199 0.000386729 0.000496025 0.000724019);
    }
    glass2
    {
        Cmu             0.09;
        kappa           0.41;
        E               9.8;
        type            epsilonWallFunction;
        value           nonuniform List<scalar> 2(0.00144987 0.00170704);
    }
    sun
    {
        Cmu             0.09;
        kappa           0.41;
        E               9.8;
        type            epsilonWallFunction;
        value           nonuniform List<scalar> 
14
(
2.49975e-05
3.51197e-05
3.94171e-05
4.66361e-05
5.36716e-05
6.04693e-05
6.71404e-05
7.38761e-05
8.09979e-05
8.81797e-05
9.38768e-05
9.74166e-05
9.85813e-05
9.82705e-05
)
;
    }
    inlet
    {
        type            fixedValue;
        value           uniform 0.00082175;
    }
    outlet
    {
        type            zeroGradient;
    }
}


// ************************************************************************* //
