/*--------------------------------*- C++ -*----------------------------------*=========                 |
  \      /  F ield         | OpenFOAM: The Open Source CFD Toolbox
   \    /   O peration     | Website:  https://openfoam.org
    \  /    A nd           | Version:  6
     \/     M anipulation  |
\*---------------------------------------------------------------------------*/
FoamFile
{
    version     2.0;
    format      ascii;
    class       volScalarField;
    location    "550";
    object      PPD;
}
// * * * * * * * * * * * * * * * * * * * * * * * * * * * * * * * * * * * * * //

dimensions      [0 0 0 0 0 0 0];

internalField   nonuniform List<scalar> 
458
(
41.52085130726445
29.52191621555923
28.046316475940273
26.795693293071096
26.03484809603121
25.673842050707407
25.782126393913614
26.40706590875081
27.644718993261137
29.803881283079605
33.0645987409073
36.472302592588164
37.256506791054996
37.68701035228384
38.28806264194586
44.27104001946174
43.56543165451183
43.364388406072734
43.716379868198295
43.993480508486456
44.19529713367108
43.95937035847303
43.75674229823244
43.782622491626896
43.90692278411146
44.03962083694298
44.23672516082275
44.46725179841906
44.80879179156727
45.40785550163436
45.89441961078904
46.123785851463346
46.864491216531334
38.07013374739704
30.06461081272272
29.520265018044853
28.25310193096938
27.497363886759715
27.157003899046742
27.206999223692108
27.54985705098025
28.200127787525147
29.27454262004312
31.13375670385892
34.00806491970191
37.089608779338896
37.639082398936
37.93841427031549
35.82948111412408
35.85979709762793
36.97922477155895
41.85781704287301
42.887947566870444
42.8629129612133
43.263962762873525
43.40722021027927
43.389514806369625
43.39323909514521
43.47800674309524
43.515955475103915
43.555089316678355
43.57858063720661
43.646325030541135
43.73017048193514
43.894761146673886
44.3496187124227
44.802157920360315
45.15710094843188
44.29176755862031
39.65669045964976
29.660225421909615
31.01032542289265
30.297586238621903
29.992174912904886
29.830530410273354
29.82768137907121
29.66458208529521
29.050162704127047
28.55174196469551
29.03211718326864
31.276472770186317
35.68218329215222
37.975066748232855
38.28806264194586
38.43284589882409
38.439391045790124
37.484442731345176
37.26940421710911
40.48802308014725
40.982123964545025
41.44083525986516
42.00215185702655
42.218267385745975
43.40301104606556
44.170056936670086
44.19529713367108
44.19529713367108
44.220541052379154
44.220541052379154
44.24578868392933
44.29629505009991
44.44790233358285
44.62494265559594
44.25359154918817
40.45446860170465
43.543318927953585
29.355598509258087
32.10944215935099
32.60287678528147
33.441106777520915
33.99657008638036
34.092765435601265
32.93259565177037
30.239517105722044
27.85024063927321
27.336044020934608
29.3942962316368
33.70522710920319
38.27794404087322
38.989707413731765
39.062555826159674
37.68419667584179
36.47801038528247
34.01851204380719
37.27929571365402
39.09462333495918
40.45069130943153
42.014268377666056
43.85587821773026
45.26823020041534
44.94169559552521
44.641714698442385
44.60868715774552
44.676072767414446
44.813426524708056
45.190298690348676
45.89430190373145
47.140274756123056
47.08277609679598
46.30235195435804
43.19532160089642
38.20983190745081
48.56800979793773
29.753016124019368
32.93660757762582
34.73580301042138
37.482127938047874
39.85740821285401
40.29498445186382
36.5874555998445
31.255027499816393
27.232189328293913
26.11450028553655
28.233074759778802
32.566368305041436
37.59230466256073
39.98945728608244
40.08746421738108
39.438665788334426
38.00284192459805
37.9385694037675
38.766933710618716
40.37480612601548
42.47060533939801
44.703014927479174
46.858392231861615
48.37836175766228
49.022973951214865
49.0766459808786
49.059999623306155
48.972470876037924
48.81816419817815
48.709857963067634
48.674871769945305
48.65544658581044
47.82970080411451
46.38326996954258
42.383716143697846
42.398468193070926
42.27743408600549
46.757520562557325
40.36418424837775
53.83653128512478
31.10422013565706
34.41015507284254
36.306997419179844
40.6203181753852
44.57434172084554
46.422392697190375
38.050194413483645
31.17205922032086
26.519597010164304
25.266162951732355
27.530132173290454
32.368674282070245
38.19428137230978
41.44311534929444
41.740813461306715
41.616691951109395
41.69115111718928
42.28782381603794
43.36943064202036
45.181739676525446
46.9156625429757
48.404092026503086
49.641534052153446
50.57226370876058
51.193751813574366
51.608440255400794
51.8677458807298
51.97149225464279
51.91961742688923
51.660294158921445
51.29739897997115
50.371347248024456
48.75052452364667
46.756825199232765
42.974457007285935
42.63951839887512
42.2947706578006
43.603966201565285
44.017997239193576
58.857592798462754
35.258039043229545
40.405320670373335
39.273963361843045
42.11477753701459
46.3278733396675
42.78976539012806
36.54436497112451
29.768238120676003
25.28387725524817
24.488039903007817
27.535163813145275
33.471778313522634
40.62035153482289
43.46487822164638
44.0439120869645
44.06913354273256
44.37208222384281
45.334822512609016
46.736611373808486
48.24974352909573
49.719016530915
50.960611467691116
51.91961742688923
52.5682619267089
52.98358884904068
53.19129291594645
53.26918736991563
53.21725743628838
53.03551270347219
52.67208183842818
52.17902273194116
51.58251471415856
50.673998055560766
48.247600847863495
44.91892418624672
43.36886267797127
42.267280193647004
40.832554198106074
46.412994035775405
66.36950125387801
54.89225082109722
51.723991655847904
45.42594165271492
44.28741334840399
43.689705319810585
39.93144140548344
32.8589532944611
26.175741668388184
22.889473389590663
23.755911356686866
28.787565755035487
36.85283942751986
43.993480508486456
46.149286273050926
46.81333093198428
47.04363867132724
47.58186010739259
48.63576160143878
49.95155373813908
51.219661969523415
52.30875292500161
53.139364820521315
53.71062859325334
54.048223865664056
54.17806788254266
54.20403646416246
54.15209921291763
53.99628593861093
53.76256578690693
53.424983560421296
52.95762750939488
52.3865991094106
51.712151755403454
50.98651128989449
50.18421993488408
49.65551654129537
48.17310688733348
43.96264957319297
39.47527802277776
76.60215274320876
69.52258444351818
61.07083428334877
53.315227150889825
48.341115207473436
44.46288470365351
34.459918942245224
24.618196844841265
19.661077097893113
19.74251750484919
24.297537200350803
33.43638484718063
43.263962762873525
47.479254230115764
49.048033478718956
49.719016530915
50.18421993488408
50.85702427130512
51.7899448946842
52.749952270824295
53.58078757435702
54.23000494720727
54.570208738104256
54.337089602423006
54.02842470329028
53.65828964874047
53.23870400645166
52.77293584372269
52.21852250733061
51.5981447190229
50.85943537342296
50.05211415347387
49.295459756774434
48.38778979455109
47.34046621711054
46.38975258926391
45.782090546911334
45.53452892007261
45.01022735321346
43.35085308453646
59.85088304587201
17.24385820736677
5.8899029102738325
5.001576889142314
5.387692533717882
7.2034114317644935
11.808235866591247
20.22943045003406
32.64216592327125
43.263962762873525
48.532775950901815
49.51475251037957
50.00215686254628
50.47033058562222
51.05178257775748
51.74825393043918
52.39365426493426
52.876647052966646
53.1057846219456
53.11913836145934
52.970120301022234
52.71792327116763
52.35700895088586
51.956697575033935
51.490736892207906
51.025898623450054
50.53603387375597
50.13606938266267
49.828262904180384
49.59445982924732
49.44462538219252
49.345244951658906
49.24143133972171
49.25369316679997
49.82225472600052
51.8213472753654
55.484533283250855
47.22360629429525
60.46080391575804
12.34110886317309
5.0041477726827
6.960763065580039
10.63460721014674
17.84650538128814
28.466568734832506
39.42752582491185
44.241893069006636
46.622734359472545
48.15215784704327
49.04292672236537
49.657365918512625
50.150403611685306
50.617840845134026
51.022238890176055
51.380109013551966
51.630998011796436
51.78510287617881
51.79050516233906
51.73212137656744
51.59080537117847
51.42778321372345
51.25188986056156
51.072352547993006
50.899083978149406
50.770818061140496
50.68602664396605
50.69595499646176
50.84203087209205
51.21168833788588
51.842420359061656
52.51002708801208
53.07332336800278
53.65616013801494
55.57277030362346
52.73407236346444
49.54283752024128
31.984690419739366
31.961432273356024
26.447548668150418
5.884297061884652
7.980678303852116
18.307328480783312
30.173714992629257
37.17269821536068
41.68215963773757
44.493274217704
46.32706925347969
47.63484385982445
48.43877336918169
48.91941281840481
49.1961890159636
49.38779809896362
49.486634234817245
49.48438327225196
49.39886500694406
49.27674284682855
49.11430511805037
48.97109009946081
48.799738167097445
48.68831918880318
48.58775074799429
48.53522396772815
48.5445421170766
48.635571029203085
48.836762985679385
49.18825050036171
49.69576811342036
50.471750389472
51.736110622331914
53.942213697352635
57.161107379203884
57.47166633026311
55.97381349924195
52.715037969151844
49.911413569665584
50.64360192042702
)
;

boundaryField
{
    ".*"
    {
        type            zeroGradient;
    }
}


// ************************************************************************* //
