/*--------------------------------*- C++ -*----------------------------------*\
  =========                 |
  \\      /  F ield         | OpenFOAM: The Open Source CFD Toolbox
   \\    /   O peration     | Website:  https://openfoam.org
    \\  /    A nd           | Version:  6
     \\/     M anipulation  |
\*---------------------------------------------------------------------------*/
FoamFile
{
    version     2.0;
    format      ascii;
    class       volVectorField;
    location    "550";
    object      U;
}
// * * * * * * * * * * * * * * * * * * * * * * * * * * * * * * * * * * * * * //

dimensions      [0 1 -1 0 0 0 0];

internalField   nonuniform List<vector> 
458
(
(0.0326347 0.092028 0)
(-0.179964 0.0276042 0)
(-0.209542 0.0183429 0)
(-0.243571 0.0106979 0)
(-0.2664 0.00219261 0)
(-0.27581 -0.00719726 0)
(-0.268484 -0.017736 0)
(-0.243123 -0.0297571 0)
(-0.20024 -0.0416285 0)
(-0.144279 -0.0509835 0)
(-0.0832061 -0.0555048 0)
(-0.025111 -0.0521572 0)
(0.0285054 -0.0276452 0)
(0.0451339 -0.00436443 0)
(0.028705 0.0308637 0)
(-0.00943851 0.0105056 0)
(-0.0392644 -0.0211464 0)
(-0.0131463 -0.034094 0)
(0.0197621 -0.0280744 0)
(0.0410694 -0.0196868 0)
(0.0570975 -0.0106248 0)
(0.0663768 -0.00588134 0)
(0.0702104 -0.00415126 0)
(0.071481 -0.00348487 0)
(0.0719883 -0.00306971 0)
(0.0721532 -0.00274134 0)
(0.0719069 -0.00239138 0)
(0.0710696 -0.00185118 0)
(0.0691238 -0.000750823 0)
(0.0649293 0.001394 0)
(0.0572567 0.00373247 0)
(0.0508832 0.00593981 0)
(-0.0147597 0.024872 0)
(0.215598 0.189933 0)
(-0.168396 0.0761086 0)
(-0.171945 0.059982 0)
(-0.208457 0.0447775 0)
(-0.232417 0.0269718 0)
(-0.243538 0.0059413 0)
(-0.238588 -0.0190385 0)
(-0.216576 -0.0464878 0)
(-0.178936 -0.0715494 0)
(-0.130645 -0.0885021 0)
(-0.0792518 -0.0931306 0)
(-0.0325527 -0.0821816 0)
(0.00915204 -0.049454 0)
(0.0383676 -0.0124502 0)
(0.0600207 0.0261989 0)
(0.0813838 0.0390036 0)
(0.0752111 0.0547515 0)
(-0.00769946 0.0864936 0)
(0.077696 0.0475886 0)
(0.0108468 -0.0259158 0)
(0.0284746 -0.0431346 0)
(0.0447293 -0.0397078 0)
(0.0585341 -0.0296832 0)
(0.0659751 -0.0127909 0)
(0.0678253 -0.00270872 0)
(0.0677567 0.00102125 0)
(0.0678287 0.00236082 0)
(0.0681334 0.00309032 0)
(0.0683576 0.00360541 0)
(0.0683863 0.00405283 0)
(0.0682296 0.00484198 0)
(0.0673954 0.00684576 0)
(0.0635587 0.0124534 0)
(0.0538732 0.0172591 0)
(0.0525676 0.0207782 0)
(-0.0650637 0.0534333 0)
(0.384025 0.285164 0)
(-0.185101 0.121659 0)
(-0.131546 0.0978316 0)
(-0.168849 0.0708495 0)
(-0.192101 0.0411728 0)
(-0.204494 0.0068066 0)
(-0.201378 -0.0331535 0)
(-0.181137 -0.0764929 0)
(-0.147232 -0.114049 0)
(-0.105577 -0.136585 0)
(-0.0632346 -0.139218 0)
(-0.0262502 -0.120406 0)
(0.00599182 -0.0799594 0)
(0.0312009 -0.0379423 0)
(0.0517015 -0.00411396 0)
(0.0614003 0.00962897 0)
(0.0593001 0.0290099 0)
(-0.0266796 0.0757103 0)
(0.138753 -0.00792037 0)
(0.0752574 -0.0361898 0)
(0.0653085 -0.0473291 0)
(0.0692077 -0.0466465 0)
(0.0746656 -0.0416279 0)
(0.077287 -0.0301749 0)
(0.0675476 -0.0191255 0)
(0.0601082 -0.013307 0)
(0.0575019 -0.01012 0)
(0.0569923 -0.00808298 0)
(0.0569528 -0.00669802 0)
(0.0572503 -0.00558665 0)
(0.0583474 -0.00429167 0)
(0.0613401 -0.00062894 0)
(0.0600524 0.017019 0)
(0.04711 0.0286013 0)
(0.0591747 0.0360237 0)
(-0.112259 0.0808735 0)
(0.538309 0.362427 0)
(-0.220785 0.162379 0)
(-0.0866559 0.132153 0)
(-0.124416 0.0958348 0)
(-0.143767 0.0577415 0)
(-0.155697 0.0122894 0)
(-0.152678 -0.0427643 0)
(-0.132067 -0.102541 0)
(-0.102159 -0.151026 0)
(-0.0685402 -0.177109 0)
(-0.0367232 -0.17705 0)
(-0.0101995 -0.151535 0)
(0.0126728 -0.10546 0)
(0.031333 -0.0585883 0)
(0.0465157 -0.0186062 0)
(0.0564192 0.0102218 0)
(0.0684757 0.0370213 0)
(0.0573323 0.0731111 0)
(0.101528 0.0866684 0)
(0.0953003 0.0019072 0)
(0.0807152 -0.0334812 0)
(0.0759246 -0.0437845 0)
(0.0726334 -0.0442561 0)
(0.0669367 -0.0386739 0)
(0.0677815 -0.0234995 0)
(0.0803778 -0.0154683 0)
(0.0905544 -0.0111603 0)
(0.0965376 -0.00846124 0)
(0.0999142 -0.00617801 0)
(0.100943 -0.00374477 0)
(0.0982929 -0.000708791 0)
(0.0906736 0.00333924 0)
(0.0759922 0.00910501 0)
(0.0587822 0.028217 0)
(0.0418843 0.0445038 0)
(0.0676401 0.0568794 0)
(-0.156891 0.102621 0)
(0.676202 0.422287 0)
(-0.266757 0.195281 0)
(-0.0388532 0.154507 0)
(-0.0757273 0.112763 0)
(-0.0877041 0.0700541 0)
(-0.0963482 0.0169597 0)
(-0.0887359 -0.0512778 0)
(-0.0656181 -0.126393 0)
(-0.0423224 -0.180724 0)
(-0.0198775 -0.206302 0)
(-0.00123967 -0.201889 0)
(0.0127228 -0.170435 0)
(0.0239893 -0.122813 0)
(0.0340556 -0.0725209 0)
(0.0427545 -0.0289837 0)
(0.0508141 0.00462354 0)
(0.0619043 0.0305231 0)
(0.0731163 0.0413171 0)
(0.0893177 0.00910757 0)
(0.0888072 -0.0226392 0)
(0.0817357 -0.0355818 0)
(0.0729252 -0.0394115 0)
(0.0646836 -0.0381429 0)
(0.0578078 -0.0317296 0)
(0.0566067 -0.0185708 0)
(0.0611137 -0.0108134 0)
(0.0662467 -0.00743025 0)
(0.0705172 -0.00529834 0)
(0.0740583 -0.0025451 0)
(0.076643 0.00174944 0)
(0.0769386 0.00762768 0)
(0.0741719 0.0152269 0)
(0.0680948 0.0252255 0)
(0.0599309 0.0409431 0)
(0.0466958 0.058274 0)
(0.0785439 0.0780475 0)
(-0.019618 0.109133 0)
(0.0504186 0.166636 0)
(-0.0971965 0.0841626 0)
(-0.291018 0.00173567 0)
(0.782139 0.471626 0)
(-0.315182 0.21689 0)
(0.00258999 0.156041 0)
(-0.0248859 0.120293 0)
(-0.0278996 0.0785732 0)
(-0.0318024 0.0222622 0)
(-0.0074966 -0.0623363 0)
(0.0166696 -0.149726 0)
(0.0293596 -0.200906 0)
(0.037289 -0.220755 0)
(0.0399271 -0.211297 0)
(0.0387647 -0.177173 0)
(0.0363706 -0.127961 0)
(0.0344612 -0.0765632 0)
(0.0339424 -0.0331028 0)
(0.0360995 -0.0016099 0)
(0.0431485 0.0189372 0)
(0.0545952 0.0229381 0)
(0.0643501 0.00528949 0)
(0.0648507 -0.0122162 0)
(0.0587022 -0.0238761 0)
(0.0499682 -0.0293311 0)
(0.0415948 -0.0297977 0)
(0.0350459 -0.026078 0)
(0.0324186 -0.0191807 0)
(0.033973 -0.0146683 0)
(0.0375062 -0.0125844 0)
(0.0417631 -0.0108651 0)
(0.0463596 -0.00787878 0)
(0.0509157 -0.00246107 0)
(0.0551422 0.00576499 0)
(0.05732 0.0161444 0)
(0.058056 0.0286219 0)
(0.0588869 0.043977 0)
(0.0566326 0.0610236 0)
(0.0826815 0.0829833 0)
(0.0634874 0.0952563 0)
(0.102096 0.103642 0)
(0.124364 0.0578318 0)
(-0.148369 -0.03958 0)
(0.841977 0.515931 0)
(-0.343797 0.20007 0)
(0.0364938 0.108045 0)
(0.0374656 0.107578 0)
(0.0404478 0.0751207 0)
(0.0515504 0.00452609 0)
(0.0898033 -0.0905782 0)
(0.10675 -0.163284 0)
(0.107595 -0.205857 0)
(0.0986018 -0.218241 0)
(0.082681 -0.203735 0)
(0.0631183 -0.16721 0)
(0.0437252 -0.117968 0)
(0.0275405 -0.0680375 0)
(0.016588 -0.0278825 0)
(0.0122011 -0.00200801 0)
(0.0157399 0.0118638 0)
(0.0239507 0.0136181 0)
(0.0298263 0.00361295 0)
(0.0298178 -0.0082771 0)
(0.0250227 -0.0172317 0)
(0.0178209 -0.0218546 0)
(0.0105311 -0.022877 0)
(0.00472208 -0.0213514 0)
(0.0019193 -0.0185121 0)
(0.0023714 -0.0168329 0)
(0.00482462 -0.0162837 0)
(0.00839559 -0.0155327 0)
(0.0128701 -0.0133121 0)
(0.0182881 -0.00838692 0)
(0.0257207 0.000422223 0)
(0.0334103 0.0119635 0)
(0.0403282 0.024652 0)
(0.0486088 0.0384952 0)
(0.0563871 0.0525987 0)
(0.0785932 0.0700285 0)
(0.0914113 0.0742369 0)
(0.126682 0.0644847 0)
(0.174476 0.0490252 0)
(-0.0113926 0.0969614 0)
(0.95176 0.517551 0)
(-0.0718433 0.180915 0)
(0.115712 0.0488485 0)
(0.16357 0.0353976 0)
(0.158194 0.00406318 0)
(0.183975 -0.0613492 0)
(0.20884 -0.121335 0)
(0.208268 -0.168012 0)
(0.188161 -0.193455 0)
(0.155735 -0.195076 0)
(0.116205 -0.175359 0)
(0.0747266 -0.137972 0)
(0.0367609 -0.0912511 0)
(0.00689162 -0.046391 0)
(-0.0115562 -0.0143257 0)
(-0.017971 0.000869821 0)
(-0.0162876 0.00768642 0)
(-0.0112554 0.00790256 0)
(-0.00794172 0.00197799 0)
(-0.00845305 -0.00561286 0)
(-0.012392 -0.0116545 0)
(-0.0182011 -0.0151421 0)
(-0.0241334 -0.0166504 0)
(-0.0289441 -0.0170561 0)
(-0.0318224 -0.0171627 0)
(-0.032865 -0.0176834 0)
(-0.0327735 -0.0184254 0)
(-0.031978 -0.0187846 0)
(-0.0304582 -0.0181504 0)
(-0.0278339 -0.015895 0)
(-0.0230257 -0.0112276 0)
(-0.0122518 -0.00334007 0)
(-0.000769957 0.00672984 0)
(0.0115021 0.0162225 0)
(0.0232176 0.0234443 0)
(0.0413566 0.0313279 0)
(0.0563518 0.0257684 0)
(0.0805813 0.00691947 0)
(0.150387 0.0531133 0)
(-0.477208 0.228477 0)
(1.09997 0.455633 0)
(0.542785 0.305081 0)
(0.543945 0.250583 0)
(0.518321 0.172667 0)
(0.467542 0.0998995 0)
(0.424256 0.0233498 0)
(0.369377 -0.0522955 0)
(0.309824 -0.109918 0)
(0.24756 -0.13998 0)
(0.182898 -0.142414 0)
(0.11731 -0.124074 0)
(0.0548525 -0.0901105 0)
(0.00270561 -0.0495715 0)
(-0.0312671 -0.0179613 0)
(-0.0454736 -0.00354264 0)
(-0.0502599 0.00258193 0)
(-0.0494143 0.00480758 0)
(-0.0468941 0.00411156 0)
(-0.0455341 0.000717226 0)
(-0.0464164 -0.003747 0)
(-0.0495495 -0.00777494 0)
(-0.0539979 -0.0107624 0)
(-0.0587461 -0.0128799 0)
(-0.0631754 -0.014444 0)
(-0.067105 -0.0156986 0)
(-0.0708075 -0.0167709 0)
(-0.0747399 -0.0174591 0)
(-0.0792689 -0.0173455 0)
(-0.0847106 -0.0159013 0)
(-0.0915016 -0.0124724 0)
(-0.10033 -0.00620464 0)
(-0.111875 0.00364624 0)
(-0.123711 0.0168113 0)
(-0.141039 0.0333687 0)
(-0.16956 0.0531593 0)
(-0.21188 0.0742746 0)
(-0.269948 0.0913008 0)
(-0.332563 0.10009 0)
(-0.41022 0.0996124 0)
(-0.69439 0.0887954 0)
(0.231782 0.16819 0)
(0.300451 0.167456 0)
(0.311464 0.0970251 0)
(0.282454 0.0205519 0)
(0.253054 -0.0368561 0)
(0.21289 -0.0714006 0)
(0.16274 -0.0847625 0)
(0.104441 -0.0782659 0)
(0.0413065 -0.059328 0)
(-0.022704 -0.0304015 0)
(-0.0573527 -0.0124862 0)
(-0.0746767 -0.00448971 0)
(-0.0808724 -0.00238259 0)
(-0.0820042 -0.00230742 0)
(-0.0811355 -0.0030092 0)
(-0.0797581 -0.00458018 0)
(-0.0791873 -0.00721854 0)
(-0.0798581 -0.010144 0)
(-0.0817745 -0.0127359 0)
(-0.0845667 -0.014988 0)
(-0.0879584 -0.0168778 0)
(-0.0918969 -0.0184192 0)
(-0.0965085 -0.0196054 0)
(-0.102002 -0.0203469 0)
(-0.108508 -0.0203563 0)
(-0.115947 -0.0191209 0)
(-0.123937 -0.0159372 0)
(-0.131723 -0.0100161 0)
(-0.138334 -0.000572183 0)
(-0.142853 0.0119972 0)
(-0.146279 0.0284071 0)
(-0.149347 0.0491467 0)
(-0.15375 0.0731647 0)
(-0.160468 0.0959075 0)
(-0.165442 0.105815 0)
(-0.150418 0.079374 0)
(-0.107432 -0.0301554 0)
(-0.292579 -0.239017 0)
(0.138356 0.384143 0)
(0.0153051 0.224478 0)
(0.0439443 0.116838 0)
(0.0562715 0.0502376 0)
(0.0604333 0.0139765 0)
(0.0440902 -0.0111983 0)
(0.00719782 -0.0125973 0)
(-0.0402697 0.0126887 0)
(-0.0778424 0.0305071 0)
(-0.100209 0.0396628 0)
(-0.109071 0.0426566 0)
(-0.111099 0.0434819 0)
(-0.1106 0.0443854 0)
(-0.109218 0.0458244 0)
(-0.107526 0.0478737 0)
(-0.10584 0.0501838 0)
(-0.104664 0.052075 0)
(-0.104238 0.0524553 0)
(-0.104515 0.052079 0)
(-0.105491 0.0519011 0)
(-0.107099 0.0518698 0)
(-0.109248 0.0519153 0)
(-0.11185 0.051926 0)
(-0.114835 0.051706 0)
(-0.118116 0.0510382 0)
(-0.121563 0.0497128 0)
(-0.124983 0.0474944 0)
(-0.127946 0.0439597 0)
(-0.129361 0.0406719 0)
(-0.127567 0.0405997 0)
(-0.120755 0.0455123 0)
(-0.107603 0.056762 0)
(-0.0885677 0.0744846 0)
(-0.0652364 0.0943703 0)
(-0.0400443 0.107984 0)
(0.000396742 0.0961165 0)
(0.145605 0.0152818 0)
(-0.205215 -0.157089 0)
(-0.512277 -0.574548 0)
(-0.707627 -0.154551 0)
(-0.471861 0.218287 0)
(-0.364193 0.0494536 0)
(-0.198312 -0.0446368 0)
(-0.135366 -0.1086 0)
(-0.11991 -0.13377 0)
(-0.12539 -0.127305 0)
(-0.14087 -0.119359 0)
(-0.146954 -0.113252 0)
(-0.14397 -0.109861 0)
(-0.138247 -0.110806 0)
(-0.13182 -0.115976 0)
(-0.126351 -0.122267 0)
(-0.122065 -0.128213 0)
(-0.118568 -0.134075 0)
(-0.115618 -0.140416 0)
(-0.113214 -0.147572 0)
(-0.111604 -0.154894 0)
(-0.1112 -0.160754 0)
(-0.112279 -0.165174 0)
(-0.114633 -0.168191 0)
(-0.11786 -0.169778 0)
(-0.1216 -0.169943 0)
(-0.125504 -0.168631 0)
(-0.129241 -0.16568 0)
(-0.132465 -0.160813 0)
(-0.134773 -0.153635 0)
(-0.13571 -0.143589 0)
(-0.134781 -0.129921 0)
(-0.131158 -0.113804 0)
(-0.122686 -0.0959394 0)
(-0.106034 -0.0764081 0)
(-0.0784872 -0.0545047 0)
(-0.0407089 -0.0293131 0)
(0.021385 0.00244655 0)
(0.0787525 0.00612416 0)
(0.132571 -0.0191783 0)
(0.187432 -0.071573 0)
(-0.152449 -0.148361 0)
)
;

boundaryField
{
    floor
    {
        type            noSlip;
    }
    ceiling
    {
        type            noSlip;
    }
    sWall
    {
        type            noSlip;
    }
    nWall
    {
        type            noSlip;
    }
    sideWalls
    {
        type            empty;
    }
    glass1
    {
        type            noSlip;
    }
    glass2
    {
        type            noSlip;
    }
    sun
    {
        type            noSlip;
    }
    Table_master
    {
        type            noSlip;
    }
    Table_slave
    {
        type            noSlip;
    }
    inlet
    {
        type            fixedValue;
        value           uniform (0.5 0 0);
    }
    outlet
    {
        type            zeroGradient;
    }
}


// ************************************************************************* //
