/*--------------------------------*- C++ -*----------------------------------*=========                 |
  \      /  F ield         | OpenFOAM: The Open Source CFD Toolbox
   \    /   O peration     | Website:  https://openfoam.org
    \  /    A nd           | Version:  6
     \/     M anipulation  |
\*---------------------------------------------------------------------------*/
FoamFile
{
    version     2.0;
    format      ascii;
    class       volScalarField;
    location    "520";
    object      PMV;
}
// * * * * * * * * * * * * * * * * * * * * * * * * * * * * * * * * * * * * * //

dimensions      [0 0 0 0 0 0 0];

internalField   nonuniform List<scalar> 
458
(
1.324484223751484
1.0787217271000697
1.045407504340483
1.0164951171373708
0.9985602647863352
0.9899772955949661
0.9926339380817609
1.0070510122846124
1.0365312648195812
1.0849014637252061
1.1558808862234897
1.2255751284774457
1.2413306440122869
1.2494468077918595
1.2618593339404096
1.3778395750963992
1.3644786006533045
1.360661022064985
1.3673417391450535
1.3725907241016497
1.3764080836733172
1.3718944635333652
1.3680322439637755
1.3689696299927763
1.3708450500113512
1.3738068894690312
1.377054656536016
1.3818588918380945
1.3882837107484145
1.3995328721250058
1.4088526752322967
1.413146400481298
1.4274580916918387
1.2571592858527072
1.0907889664660437
1.0781708516154496
1.0496817177590405
1.0328974834206615
1.024535858288527
1.025758368690254
1.034278254543333
1.0487444916653104
1.0735359215008722
1.1139578056023078
1.175435476330685
1.237988631290807
1.2489693924614151
1.2540725355903815
1.2120411057066733
1.2129899940686109
1.235902241935966
1.3321764257149522
1.3511167770460972
1.3511167770460972
1.35875220700207
1.3613828227140037
1.3610696953184624
1.361601882281533
1.3627422285008868
1.3639207018383155
1.3641988933060607
1.3651065323426257
1.3659260766368169
1.3675141086011864
1.3710931666459232
1.3796894687807622
1.3883368675953367
1.3950166728600044
1.3788945649545934
1.2883866825337993
1.0819001002731767
1.1109466703328685
1.0959454860097795
1.0892567324224938
1.08572361893275
1.0857101468178105
1.0821097926302528
1.0683852605352042
1.0566273991950488
1.067968174161698
1.1174519798997697
1.2098770536871726
1.255653136941915
1.2618593339404096
1.264723687228137
1.2641736175029257
1.245847502930064
1.2422136802992514
1.3053278290309815
1.3143396134381429
1.3231916244839343
1.334466905892763
1.3386443368637795
1.361258403352159
1.3764080836733172
1.3764080836733172
1.3768852486014194
1.3768852486014194
1.377362412409618
1.3778395750963992
1.3787938971002092
1.3816568360497226
1.3849968798593713
1.378020176319298
1.3059746006833857
1.3631778665824343
1.075167588405702
1.1351239598962313
1.1462153668342647
1.163435784556815
1.1750645157337578
1.1770782610407338
1.1521683546764236
1.0946207283509994
1.0409903903855455
1.0292168013241718
1.0761277781352716
1.169028486696515
1.2621124819034928
1.2757034371192237
1.2771355461891298
1.2491465442588585
1.224987951142278
1.1750382763818648
1.241291343234903
1.2777851863136258
1.3043204306307858
1.3345405064210114
1.369668277865763
1.3963173146022427
1.3907149302754032
1.3851391264152606
1.3845898415484716
1.38592990179402
1.3885895264800912
1.3957341621777428
1.4094562606608667
1.432752162118001
1.4316535909439247
1.4169629614724182
1.3580312641139785
1.2619852528287485
1.4572727412079767
1.0840349903388136
1.1526908320604066
1.190315559390162
1.2461030073221058
1.2935096821685843
1.3018486727271188
1.2276373711968298
1.115534552027545
1.026111773295824
1.0000232070038282
1.0499082816147447
1.1450717495788447
1.2486509224254743
1.295274929701891
1.2971842652001069
1.2842511867054391
1.2555467446384565
1.2543975272569832
1.2708935163971145
1.3023815040392421
1.3432511263509717
1.3856529792343357
1.4265544980918492
1.4551240676990465
1.466865924968229
1.468410151578044
1.4681900612612848
1.4666488713015433
1.4638456488870766
1.4618993331245445
1.4617494347770377
1.460929862400653
1.445594400737177
1.4186059922136216
1.343080839563863
1.3432242296611745
1.3416263885680433
1.4261463719105234
1.3048215725634362
1.5542864923207926
1.1136617656552839
1.1839837405659746
1.2228642772743024
1.307871790428974
1.3835654393496628
1.4166631377710615
1.2560749384870178
1.1136356702730341
1.0089114215950625
0.9801694806315591
1.0343017049578491
1.1413996925983612
1.2607578126500678
1.3239134248962932
1.3296407156933037
1.3272543615866084
1.3286861769884406
1.339167629049747
1.3603280262063668
1.394631823085778
1.4279351285108182
1.4560779866597788
1.4784934782072987
1.496137479867071
1.5075811411644515
1.5156865307504974
1.5204541950123434
1.5223612162603888
1.5214077088255296
1.516640076250013
1.5099651260076798
1.492616719525154
1.462664329037764
1.4256135317440857
1.3543765695278644
1.3479421293612726
1.3413952877498032
1.3662966792843545
1.374655641285123
1.647215096369101
1.2010566127072304
1.3034424193169367
1.2814675569404406
1.3371013242685537
1.4169629614724182
1.348262908390953
1.2254756336213826
1.0829054443879904
0.9794401193452161
0.9606936220918376
1.0344756106594961
1.1652693046769782
1.3085212808222497
1.363047016766994
1.373545070665681
1.3740222422835229
1.3797482146013398
1.3978793762867858
1.424595844030147
1.4527392464194908
1.4799241477089418
1.5032898712365228
1.5209309527153738
1.5333260888567217
1.5404766272517922
1.5447667709409578
1.546196788660485
1.5452434451965082
1.5419066901888687
1.5352329353717071
1.5261751819410574
1.5152097556388018
1.4985752306708393
1.4537737848004262
1.3911682850321774
1.3618498294161165
1.3408558285846035
1.3132798790986056
1.4191177823618526
1.7878231498308363
1.5741684910764462
1.5158838500366514
1.3995262777389041
1.3778550896477924
1.3662400195524196
1.2931816318470184
1.1496977441677592
1.0002486554687897
0.9199655893175931
0.943148318878751
1.0637011940650138
1.2348237555302728
1.373545070665681
1.4136234749294028
1.4260269735834985
1.430320293409012
1.4403376328439554
1.4603705540271352
1.484216077779265
1.508057941230371
1.5280821261530622
1.5438134173914886
1.5542999344842465
1.5604961236667427
1.5633558044010585
1.5638324117424927
1.5624025844701392
1.5595428828232558
1.555253213329742
1.549056778547298
1.5404766272517922
1.5299890444653648
1.5175936154396419
1.5042434975300585
1.489461608936504
1.479720503690264
1.4523099895551244
1.373161791639113
1.2871117871227133
1.9968990581580506
1.8494060957193965
1.6882320977256973
1.545227952272508
1.4534668169693632
1.3803915504010633
1.1822586948674525
0.961668684956933
0.8317115638721536
0.8358199571970982
0.9570051968294943
1.165469251268731
1.3601838199035268
1.4389066195965747
1.468001507479687
1.4804010346465397
1.4889847498445423
1.5013826003012642
1.5185471483056845
1.5361863487671663
1.5519167073775157
1.5638324117424927
1.5698514764915643
1.5655973720659064
1.5599672999598202
1.5536849385360307
1.5460326666476119
1.5370569650089
1.5269124408477759
1.5155410887379797
1.5019756517921627
1.4871274982324374
1.4731908752436662
1.456411564722778
1.4370082107708444
1.4188283196955151
1.4075163570034301
1.4029245291904833
1.3931235319979516
1.3618624297032735
-1.6670256157547625
-0.7661153073658024
-0.21250072706576176
-0.015594601145581626
0.1315390890816555
0.3224865016588527
0.5699431434833959
0.8517998205756065
1.1498917279477323
1.3611382231546674
1.4594166598108418
1.4764219551223794
1.4851696072426783
1.4938959036181019
1.5046666430349147
1.5175293199025588
1.5298975670647421
1.5387711675529967
1.5429747497767614
1.5432232839039588
1.5409780953957022
1.5358995860055853
1.5297906104477228
1.522007556161667
1.513498213947859
1.5050073898680014
1.4960450743538287
1.4887236373186283
1.4830832640595375
1.4787916506617993
1.4760364185819
1.4737125906915847
1.471810697850089
1.4725696056050235
1.4830931448160003
1.5194020061986397
1.587231003614411
1.4350328245411632
-1.6783248139472409
-0.5943383290958187
-0.0163094225922325
0.3044028802685983
0.518715879575534
0.7823383033646084
1.0584320048148936
1.2871600964788892
1.3782886871248836
1.423215483190881
1.4519903959695066
1.4681317311055584
1.4795443665025825
1.4891638361077664
1.4973221771879772
1.5047927608136955
1.5113883539585842
1.5164508227838558
1.5188223323438672
1.5194481581520207
1.5179329482534842
1.515871532785515
1.5124310456459424
1.5092388254180595
1.5059731654827775
1.502815985619647
1.50047930413299
1.498934587405869
1.499128713619261
1.5018271874257398
1.5086351966301943
1.5197404161244743
1.5324866414364158
1.5428340645637237
1.5535454397323558
1.5887307775726565
1.5359995654611593
1.4779358075428084
-1.1314864454197915
-1.130542068738916
-1.0074836586958724
-0.20439658555368723
0.38162514747556314
0.7994776962784166
1.09674994685198
1.2431671656422625
1.3311324953306032
1.3847027112986237
1.4186511974510365
1.4430309713836356
1.457993052781161
1.4669631845726079
1.472160278139979
1.4757681071463753
1.477644886131356
1.4776301721435106
1.4760400880338123
1.4737370086374757
1.4707373652961346
1.4675822762899469
1.4649375912740277
1.4623808928565494
1.4605403822443794
1.459589116492335
1.4597785136244266
1.4614751683536564
1.4651993413130215
1.4716891464795325
1.4810350680342643
1.495314161331593
1.51855379923041
1.5590405857641798
1.6176759333490738
1.623392554752576
1.5953535412041802
1.5362360651463567
1.484799426983421
1.4982263372101983
)
;

boundaryField
{
    ".*"
    {
        type            zeroGradient;
    }
}


// ************************************************************************* //
