/*--------------------------------*- C++ -*----------------------------------*=========                 |
  \      /  F ield         | OpenFOAM: The Open Source CFD Toolbox
   \    /   O peration     | Website:  https://openfoam.org
    \  /    A nd           | Version:  6
     \/     M anipulation  |
\*---------------------------------------------------------------------------*/
FoamFile
{
    version     2.0;
    format      ascii;
    class       volScalarField;
    location    "520";
    object      PPD;
}
// * * * * * * * * * * * * * * * * * * * * * * * * * * * * * * * * * * * * * //

dimensions      [0 0 0 0 0 0 0];

internalField   nonuniform List<scalar> 
458
(
41.5290346882628
29.546097978267042
28.067563081264467
26.816982555278642
26.05686256275075
25.697404582104852
25.808365732251218
26.415209660218764
27.680359258621067
29.824675207995654
33.11666458305838
36.50227989402517
37.286751524679566
37.693422274394045
38.31864157676141
44.3284264080726
43.62256371355718
43.42144495692986
43.77356773359545
44.050768838486775
44.252657018687785
44.01397210624614
43.81000669186654
43.85948704650603
43.958527035510826
44.11506161237306
44.28687619072194
44.54134929142821
44.88224057284139
45.48063698677663
45.97780814751847
46.20726842620024
46.97385373829625
38.08144054323496
30.091311223978266
29.5213296375764
28.25503679259289
27.52267579824195
27.161680256145544
27.21429829267234
27.582535560995296
28.213871972785896
29.313356005854686
31.152095939792943
34.05205268711204
37.119797565989934
37.66945340485911
37.925962531660204
35.8338191993695
35.88051965753658
37.01571973165223
41.929283981756875
42.919775287880725
42.919775287880725
43.320981090361165
43.459451337695
43.442962493360156
43.470987736600215
43.531055828106
43.593156337456385
43.607819393129695
43.65566909348757
43.698886871610874
43.78266315510674
43.97163443110336
44.42639173755416
44.88506370311423
45.24016993474551
44.3842889519303
39.66755863611938
29.689210224642153
31.01320593743526
30.325822889845952
30.021803428448266
29.86183733131928
29.86122819128174
29.69866440235957
29.0831276464059
28.561091933200203
29.064525399756533
31.313645609787116
35.72740811422331
38.005546385531595
38.31864157676141
38.463470146267426
38.43564147953763
37.51286281149988
37.33091376697144
40.53762514567513
41.00304371085349
41.46189512289273
42.04869472304269
42.266745663681576
43.45289938251434
44.252657018687785
44.252657018687785
44.277909791938605
44.277909791938605
44.30316625802842
44.3284264080726
44.378957724485986
44.53063916334088
44.707764677241464
44.33798809260773
40.570969258911305
43.554009251047376
29.38648445293559
32.136861166133485
32.65871105290741
33.476654410515565
34.03419901672754
34.13116695466596
32.940416023235954
30.265487611512256
27.874518348777087
27.363452098172985
29.429562166184184
33.74428281200082
38.33143311354257
39.02050229292177
39.09337259933484
37.678346710889535
36.47317365908989
34.03293632127222
37.28478649828523
39.12644457504634
40.485707333248556
42.05253350347007
43.89637528229151
45.30939216321658
45.011406035132524
44.71531207928768
44.68616956673699
44.757275333327335
44.898482874947035
45.27835273522889
46.01004899886642
47.25807241235611
47.19906665848592
46.411437443544855
43.28305372217342
38.32500404339117
48.57859722384078
29.785535243906182
32.9651939145473
34.771604925120926
37.52566913194705
39.929981167363856
40.35841639454409
36.60457926231851
31.224944905100244
27.229519484584486
26.118410625136946
28.264992689455454
32.604721919332434
37.65346773333666
40.020543998345374
40.11857853687413
39.45616334467017
38.0001875006844
37.9423207885586
38.776120112201056
40.385844782800646
42.50760198184677
44.74257904980568
46.92537716547988
48.46263250420841
49.09687545018472
49.180380922181115
49.168478069107664
49.08513974481693
48.93361208487001
48.82844607749649
48.820348005320625
48.776075303993075
47.94887201350846
46.49939154329135
42.498691622166774
42.50619455929813
42.42260924735601
46.903485045831204
40.51153165688658
53.84697065153217
31.138427525574073
34.4646123091659
36.36798246142141
40.66883109190981
44.63183231691746
46.39539121460478
38.02679497780109
31.1372228200848
26.49409065441924
25.29009883145767
27.583552797930338
32.43164943861919
38.2630004824565
41.49938228735207
41.79721080811019
41.673035284847984
41.747526914442766
42.29408422034849
43.403914194765946
45.2196924713972
46.999450157023034
48.51411032007511
49.72613765092633
50.68294771842757
51.30457053615873
51.745265705015555
52.00462148641936
52.10838640267649
52.05650241247906
51.797130073448265
51.43415709833335
50.491853605115175
48.8697772548816
46.8749062986579
43.090931917942136
42.75327837309766
42.41052410085409
43.71843403026846
44.15994567783962
58.89972133205369
35.295063426371144
40.44047591283891
39.314097289117036
42.18616455889273
46.411437443544855
42.770093333944395
36.4973472959117
29.734551031608078
25.259957139907044
24.49230840867007
27.591097145517764
33.56428812380764
40.702351476255465
43.54711452789938
44.101218425299976
44.12644885537693
44.42950367001779
45.39256085080016
46.82033268098915
48.33397598638039
49.803637986910644
51.07138260322175
52.03056156127234
52.70524576483434
53.09465423098607
53.3283394228867
53.406239478484636
53.354305865685504
53.17254651647979
52.809078320621545
52.315951352136864
51.71933485010708
50.815304627643215
48.38978039646085
45.035501871234416
43.48404647475477
42.382317723279044
40.94822236145197
46.526795693291106
66.37899822053521
54.930217729640724
51.75599779645661
45.480285646465475
44.329247783761154
43.71544540099078
39.91315895625887
32.82336668726863
26.127902780887226
22.872140785063706
23.786293657086944
28.874570438009897
36.96196577527361
44.101218425299976
46.232779145180196
46.897080841130446
47.1274727221697
47.66588072118475
48.74586546268409
50.03622700380744
51.33048576179556
52.41975006166298
53.276407316880785
53.84770303511617
54.185304559823486
54.34111686926648
54.36708510886316
54.289179937488655
54.13336628312267
53.89964180241813
53.562045379398235
53.09465423098607
52.523558710500176
51.84899791814792
51.123194315998944
50.32067330377609
49.792605496808996
48.310824435910256
44.08095532355526
39.60234698842511
76.61033954713814
69.53147824557082
61.11121268131095
53.35346189587497
48.37322101759182
44.4635866547801
34.38118121171688
24.531898975759972
19.591831938315423
19.737391153878193
24.342883502757815
33.57385090427732
43.396322981746444
47.588896728016785
49.15828109838535
49.82947474511519
50.29480710175625
50.96777312670356
51.90086915679866
52.860997432100355
53.717857110418414
54.36708510886316
54.695028011010336
54.463249353014795
54.156491066239404
53.814195679038455
53.39729880005648
52.90840960780112
52.356080411255405
51.73735529790405
50.99998754858908
50.194079225679026
49.43903214107527
48.53211381008636
47.48680395974747
46.511295800763655
45.90644593244824
45.66142378102615
45.1394593435366
43.48471012851942
59.97004850002925
17.364129759502063
5.936605263463633
5.005034242230835
5.358445897449911
7.162234954457858
11.804101929560403
20.31025276443637
32.83255002522564
43.44657092336255
48.694349680745894
49.613949951888024
50.08791911728369
50.5612740657695
51.146185908161236
51.84550043854495
52.51857862254285
53.00176692306022
53.230723723598125
53.244261660675654
53.121967625968246
52.84538124116624
52.51275586748378
52.089142009864574
51.62625567481433
51.16470106495231
50.677931296307165
50.280644262692455
49.974824173913426
49.742288558520265
49.593074134043164
49.46727001687525
49.3643407783887
49.405408805887554
49.97535970828087
51.94737568591544
55.641678673630906
47.38061522288181
60.578729337519434
12.404792536607701
5.005506341982439
6.92567186308591
10.62669029804286
17.89810577183968
28.640893924737426
39.604817352368386
44.35220501762444
46.74633138333065
48.29358867347081
49.16532354686011
49.78306345423199
50.304521073260624
50.747266031442024
51.15303869665728
51.511532834837574
51.78683606685608
51.91583957798633
51.94988655664433
51.86745686121756
51.75532786281801
51.56822624509824
51.39467452267262
51.21718172805921
51.045637641122134
50.91871009318381
50.83481877845957
50.845360730031025
50.99192281341746
51.36186249700374
51.965786879411745
52.6595387406966
53.223060486276324
53.80659527976306
55.72334102414729
52.8508257832819
49.695932524136055
31.966579724003353
31.922441304987032
26.43354215517175
5.86640446631074
8.03281043433887
18.47439625727344
30.362490868178412
37.37862228186304
41.874894949415264
44.69215752322151
46.50181195126109
47.81083547353812
48.61748271631381
49.10213423813921
49.38325759939767
49.57854645319403
49.680176301603424
49.67937941365963
49.59327281991756
49.46859169400229
49.306265968868686
49.13561022185088
48.99262847563405
48.854463145774154
48.75503806034775
48.70366270040905
48.713890862911654
48.805531639933285
49.00677691418878
49.35776351354558
49.863828035765074
50.63825403666556
51.90123097341798
54.10599816215063
57.29779760692399
57.60827259908596
56.08387097607938
52.86370484823295
50.067850374835515
50.79635939128195
)
;

boundaryField
{
    ".*"
    {
        type            zeroGradient;
    }
}


// ************************************************************************* //
