/*--------------------------------*- C++ -*----------------------------------*\
  =========                 |
  \\      /  F ield         | OpenFOAM: The Open Source CFD Toolbox
   \\    /   O peration     | Website:  https://openfoam.org
    \\  /    A nd           | Version:  6
     \\/     M anipulation  |
\*---------------------------------------------------------------------------*/
FoamFile
{
    version     2.0;
    format      ascii;
    class       volScalarField;
    location    "520";
    object      T;
}
// * * * * * * * * * * * * * * * * * * * * * * * * * * * * * * * * * * * * * //

dimensions      [0 0 0 1 0 0 0];

internalField   nonuniform List<scalar> 
458
(
301.779
301.48
301.465
301.461
301.458
301.454
301.45
301.444
301.437
301.431
301.432
301.446
301.479
301.496
301.522
301.765
301.737
301.729
301.743
301.754
301.762
301.769
301.776
301.783
301.789
301.796
301.802
301.809
301.815
301.822
301.83
301.839
301.869
301.975
301.509
301.479
301.478
301.478
301.476
301.472
301.461
301.44
301.419
301.413
301.433
301.472
301.495
301.51
301.519
301.53
301.556
301.774
301.709
301.709
301.725
301.742
301.748
301.752
301.754
301.757
301.759
301.762
301.764
301.767
301.772
301.778
301.787
301.801
301.85
302.183
301.554
301.508
301.516
301.527
301.534
301.533
301.513
301.467
301.417
301.397
301.423
301.475
301.509
301.522
301.528
301.534
301.553
301.718
301.692
301.701
301.73
301.761
301.761
301.761
301.762
301.762
301.763
301.763
301.764
301.765
301.767
301.773
301.78
301.793
301.846
302.398
301.614
301.544
301.564
301.594
301.62
301.629
301.597
301.512
301.42
301.379
301.411
301.48
301.53
301.551
301.554
301.552
301.556
301.569
301.598
301.648
301.705
301.76
301.807
301.843
301.868
301.887
301.903
301.915
301.923
301.93
301.936
301.938
301.892
301.847
301.82
301.852
302.611
301.694
301.582
301.605
301.658
301.714
301.746
301.697
301.56
301.422
301.361
301.4
301.485
301.558
301.592
301.596
301.591
301.589
301.607
301.648
301.706
301.771
301.833
301.885
301.927
301.956
301.978
301.993
302.002
302.005
302.003
301.997
301.984
301.951
301.901
301.855
301.856
301.987
302.069
302.069
302.806
301.797
301.638
301.639
301.696
301.777
301.853
301.773
301.587
301.416
301.345
301.39
301.498
301.598
301.652
301.664
301.659
301.662
301.69
301.742
301.805
301.87
301.929
301.976
302.013
302.037
302.054
302.064
302.068
302.066
302.056
302.042
302.022
301.991
301.946
301.895
301.875
301.933
301.966
302.016
302.978
301.97
301.782
301.736
301.765
301.847
301.91
301.794
301.573
301.383
301.315
301.385
301.528
301.659
301.734
301.756
301.757
301.769
301.807
301.863
301.922
301.979
302.028
302.065
302.091
302.106
302.115
302.118
302.116
302.109
302.095
302.076
302.053
302.024
301.985
301.94
301.912
301.925
301.943
301.977
303.229
302.476
302.246
302.091
302.032
302.069
301.992
301.749
301.466
301.283
301.264
301.397
301.592
301.756
301.84
301.866
301.875
301.896
301.938
301.988
302.038
302.08
302.113
302.135
302.148
302.154
302.155
302.152
302.146
302.137
302.124
302.106
302.084
302.058
302.03
301.999
301.983
301.995
302.024
302.209
303.588
303.237
302.948
302.676
302.48
302.317
301.916
301.463
301.163
301.091
301.213
301.469
301.728
301.893
301.954
301.98
301.998
302.024
302.06
302.097
302.13
302.155
302.172
302.181
302.184
302.184
302.181
302.176
302.17
302.164
302.158
302.156
302.157
302.164
302.182
302.212
302.257
302.303
302.338
302.415
296.301
298.205
299.233
299.532
299.763
300.071
300.467
300.895
301.31
301.73
301.936
302.027
302.066
302.088
302.108
302.131
302.156
302.178
302.194
302.204
302.21
302.211
302.211
302.209
302.207
302.206
302.204
302.204
302.205
302.206
302.211
302.221
302.239
302.266
302.3
302.333
302.361
302.385
296.589
298.25
299.066
299.517
299.966
300.518
301.096
301.575
301.85
302.015
302.097
302.135
302.158
302.176
302.191
302.205
302.218
302.228
302.233
302.236
302.236
302.236
302.234
302.233
302.232
302.231
302.231
302.231
302.232
302.234
302.238
302.245
302.258
302.277
302.3
302.327
302.327
302.364
298.08
298.041
298.037
299.318
300.142
300.906
301.511
301.8
301.984
302.091
302.151
302.193
302.22
302.238
302.25
302.26
302.268
302.274
302.278
302.28
302.28
302.279
302.278
302.276
302.274
302.272
302.27
302.268
302.266
302.264
302.262
302.261
302.261
302.263
302.268
302.28
302.293
302.304
302.309
302.351
)
;

boundaryField
{
    floor
    {
        type            wallHeatTransfer;
        Tinf            uniform 305.2;
        alphaWall       uniform 0.24;
        value           nonuniform List<scalar> 
36
(
301.934
302.374
302.287
302.235
302.232
302.248
302.277
302.311
302.345
302.378
302.409
302.439
302.468
302.496
302.523
302.552
302.582
302.606
302.669
302.669
302.533
302.46
302.413
302.426
302.483
302.46
301.934
301.869
301.919
301.997
302.374
301.997
302.387
301.959
302.199
301.945
)
;
    }
    ceiling
    {
        type            wallHeatTransfer;
        Tinf            uniform 303.2;
        alphaWall       uniform 0.24;
        value           nonuniform List<scalar> 
43
(
298.378
298.336
298.328
299.518
300.313
301.055
301.642
301.918
302.095
302.197
302.255
302.296
302.324
302.342
302.354
302.364
302.373
302.38
302.386
302.39
302.392
302.392
302.392
302.391
302.389
302.387
302.384
302.38
302.376
302.371
302.367
302.362
302.358
302.356
302.356
302.363
302.374
302.384
302.394
302.437
303.57
303.236
296.986
)
;
    }
    sWall
    {
        type            wallHeatTransfer;
        Tinf            uniform 315.2;
        alphaWall       uniform 0.36;
        value           uniform 299.535;
    }
    nWall
    {
        type            wallHeatTransfer;
        Tinf            uniform 307.2;
        alphaWall       uniform 0.36;
        value           nonuniform List<scalar> 6(302.975 302.907 302.768 303.047 303.023 303.05);
    }
    sideWalls
    {
        type            empty;
    }
    glass1
    {
        type            wallHeatTransfer;
        Tinf            uniform 315.2;
        alphaWall       uniform 4.3;
        value           nonuniform List<scalar> 9(310.823 310.137 309.709 309.386 309.121 308.879 308.673 308.74 308.984);
    }
    glass2
    {
        type            wallHeatTransfer;
        Tinf            uniform 307.2;
        alphaWall       uniform 4.3;
        value           nonuniform List<scalar> 2(305.189 305.354);
    }
    sun
    {
        type            wallHeatTransfer;
        Tinf            uniform 305.2;
        alphaWall       uniform 0.24;
        value           nonuniform List<scalar> 
14
(
302.125
301.831
301.811
301.795
301.78
301.766
301.753
301.739
301.726
301.718
301.72
301.741
301.801
301.862
)
;
    }
    Table_master
    {
        type            zeroGradient;
    }
    Table_slave
    {
        type            zeroGradient;
    }
    inlet
    {
        type            fixedValue;
        value           uniform 293.15;
    }
    outlet
    {
        type            zeroGradient;
    }
}


// ************************************************************************* //
