/*--------------------------------*- C++ -*----------------------------------*\
  =========                 |
  \\      /  F ield         | OpenFOAM: The Open Source CFD Toolbox
   \\    /   O peration     | Website:  https://openfoam.org
    \\  /    A nd           | Version:  6
     \\/     M anipulation  |
\*---------------------------------------------------------------------------*/
FoamFile
{
    version     2.0;
    format      ascii;
    class       volScalarField;
    location    "4290";
    object      k;
}
// * * * * * * * * * * * * * * * * * * * * * * * * * * * * * * * * * * * * * //

dimensions      [0 2 -2 0 0 0 0];

internalField   nonuniform List<scalar> 
458
(
0.00226773
0.002686
0.00280874
0.00308392
0.00334874
0.00360956
0.00388039
0.00416518
0.00440548
0.00455989
0.00457748
0.00441288
0.00402234
0.00325517
0.00187334
0.000457619
0.000628906
0.000808391
0.000878873
0.000851578
0.000745746
0.000636829
0.000546659
0.000474099
0.000415278
0.000367102
0.000327362
0.000294041
0.000265249
0.000239309
0.000214605
0.000200564
0.00016941
0.00412323
0.0075528
0.00415031
0.00437424
0.00471604
0.00513522
0.00563205
0.00619625
0.00680014
0.00731249
0.00758784
0.00753063
0.00712355
0.00635467
0.00513897
0.00326398
0.00224656
0.0014955
0.00045027
0.000973139
0.00130321
0.0014583
0.00147264
0.00125931
0.0010243
0.000833969
0.000688707
0.000577295
0.000490651
0.000421509
0.000364693
0.000317431
0.000283503
0.000264379
0.000493918
0.000292784
0.0060951
0.0136498
0.00491136
0.00472485
0.00494139
0.00528563
0.00575029
0.00634021
0.00699297
0.00754954
0.00789146
0.00794874
0.0076924
0.00705998
0.00603653
0.00488796
0.00391821
0.00208592
0.00106833
0.00139967
0.00160351
0.00173029
0.0017227
0.00134706
0.0010325
0.000802568
0.00063755
0.000518216
0.000430571
0.000365304
0.000316447
0.000280868
0.000262114
0.000265438
0.000780405
0.000408878
0.00835984
0.0222367
0.00592683
0.00470725
0.0047467
0.0050166
0.00547373
0.00616801
0.00689171
0.0074621
0.00783265
0.00795238
0.00774715
0.00714478
0.00628614
0.00543496
0.00463166
0.0034999
0.00276854
0.00250666
0.00237384
0.00233787
0.00228924
0.00215153
0.00170916
0.00143611
0.00126372
0.00114355
0.00104661
0.000954647
0.000871133
0.000787041
0.00069415
0.000530224
0.000422746
0.00113249
0.000542362
0.0110412
0.0339576
0.00842364
0.00474991
0.00448305
0.00470824
0.00529961
0.00635505
0.00718493
0.00773939
0.00809477
0.00819677
0.00789993
0.00718213
0.00621575
0.00530901
0.0045795
0.00397828
0.00379452
0.00347936
0.00325239
0.00307051
0.00285905
0.00259012
0.00230259
0.00210654
0.00198652
0.00189183
0.00178979
0.00166103
0.00149184
0.0012991
0.00109385
0.000865692
0.000664773
0.000922213
0.00106384
0.000969464
0.00108637
0.00128348
0.0143256
0.0466888
0.0149489
0.00592273
0.00474223
0.0047831
0.00570714
0.00726629
0.00803148
0.00847385
0.008738
0.00874698
0.00831953
0.00737808
0.00612386
0.00496563
0.00418314
0.00384117
0.00381355
0.00382261
0.00373142
0.00350829
0.00318874
0.0028344
0.00254742
0.002395
0.0023214
0.00226281
0.00218479
0.00206506
0.00187828
0.0016488
0.00140027
0.00114674
0.00093555
0.000900659
0.00103002
0.00105444
0.00165137
0.00138073
0.0179784
0.0550448
0.0270743
0.0123569
0.00830671
0.00741092
0.00850342
0.00920854
0.00948494
0.00964468
0.00972875
0.00958258
0.00894618
0.00770835
0.00610924
0.00469805
0.00388611
0.00373515
0.00389758
0.00398208
0.00385303
0.00354985
0.00317044
0.00281141
0.00256703
0.0024682
0.00245136
0.00245668
0.00245461
0.0024242
0.00233567
0.00214693
0.00191034
0.0016588
0.00145713
0.00136452
0.0014509
0.00168145
0.00223389
0.0019488
0.018942
0.0568509
0.0383024
0.0271706
0.019741
0.0158798
0.0137247
0.0122881
0.0115359
0.0112118
0.0110092
0.0106094
0.00964613
0.00799429
0.0059737
0.00439187
0.00367695
0.00365496
0.00377945
0.0037498
0.0035165
0.00316979
0.00281983
0.00255033
0.00240793
0.00238367
0.0024313
0.00251747
0.00263047
0.00276739
0.0029257
0.0030669
0.00310916
0.003139
0.00329218
0.00386926
0.00511983
0.00681615
0.0128318
0.00467701
0.018204
0.026467
0.0243623
0.0217106
0.0188863
0.0164643
0.0146538
0.0135901
0.0130861
0.012767
0.0123561
0.0115953
0.0100706
0.00776832
0.00515867
0.00385706
0.00340205
0.00330908
0.00325257
0.00309083
0.00282303
0.00252744
0.00228241
0.00213418
0.00208889
0.00212324
0.00220959
0.00233308
0.00249007
0.0026817
0.00290935
0.00317117
0.00348968
0.00390109
0.00444814
0.00509779
0.0056969
0.00606903
0.00624801
0.00408113
0.00718425
0.0110953
0.0135431
0.0147731
0.0154366
0.015707
0.0153762
0.0144498
0.0132102
0.0115849
0.0088099
0.00585902
0.00403631
0.00322546
0.00288131
0.00270022
0.00252793
0.00231818
0.00209088
0.00188811
0.00175207
0.00169317
0.00169793
0.00174775
0.00182983
0.0019393
0.00207753
0.00225115
0.00247287
0.00276577
0.00313121
0.00356696
0.00405087
0.00449029
0.0047124
0.00457258
0.00410651
0.00264221
0.00805113
0.0194682
0.0216067
0.0214966
0.0207241
0.0184735
0.0153358
0.0120142
0.00883175
0.00623509
0.00435094
0.00326383
0.00271624
0.00241274
0.00221107
0.00203305
0.00184828
0.00166528
0.00150956
0.00139915
0.00133841
0.00132646
0.00135521
0.00141897
0.00151613
0.00164811
0.00181816
0.0020306
0.00229585
0.00262421
0.00302422
0.00349662
0.00401514
0.004512
0.00481666
0.00510127
0.00428709
0.00271115
0.00890488
0.00935036
0.0097646
0.0120868
0.0107996
0.0084825
0.00603727
0.00437006
0.00348191
0.00273144
0.00214583
0.00173665
0.00142388
0.00120743
0.00106738
0.000970584
0.000896061
0.000834315
0.000784995
0.000752567
0.000740651
0.000749607
0.000776459
0.000816789
0.000869209
0.000933439
0.0010101
0.00110103
0.00120919
0.00133999
0.0014969
0.00168188
0.00189927
0.00215403
0.00245073
0.00283156
0.00300691
0.00288504
0.00249599
0.00213495
)
;

boundaryField
{
    floor
    {
        type            kqRWallFunction;
        value           nonuniform List<scalar> 
36
(
0.00187334
0.000457619
0.000628906
0.000808391
0.000878873
0.000851578
0.000745746
0.000636829
0.000546659
0.000474099
0.000415278
0.000367102
0.000327362
0.000294041
0.000265249
0.000239309
0.000214605
0.000200564
0.00016941
0.00016941
0.000292784
0.000408878
0.000542362
0.000969464
0.00108637
0.00128348
0.00187334
0.00326398
0.00224656
0.0014955
0.000457619
0.0014955
0.00045027
0.00208592
0.00106833
0.00276854
)
;
    }
    ceiling
    {
        type            kqRWallFunction;
        value           nonuniform List<scalar> 
43
(
0.00890488
0.00935036
0.0097646
0.0120868
0.0107996
0.0084825
0.00603727
0.00437006
0.00348191
0.00273144
0.00214583
0.00173665
0.00142388
0.00120743
0.00106738
0.000970584
0.000896061
0.000834315
0.000784995
0.000752567
0.000740651
0.000749607
0.000776459
0.000816789
0.000869209
0.000933439
0.0010101
0.00110103
0.00120919
0.00133999
0.0014969
0.00168188
0.00189927
0.00215403
0.00245073
0.00283156
0.00300691
0.00288504
0.00249599
0.00213495
0.018204
0.026467
0.00805113
)
;
    }
    sWall
    {
        type            kqRWallFunction;
        value           uniform 0.00890488;
    }
    nWall
    {
        type            kqRWallFunction;
        value           nonuniform List<scalar> 6(0.00128348 0.00138073 0.0019488 0.00264221 0.00271115 0.00213495);
    }
    sideWalls
    {
        type            empty;
    }
    glass1
    {
        type            kqRWallFunction;
        value           nonuniform List<scalar> 9(0.00226773 0.00412323 0.0060951 0.00835984 0.0110412 0.0143256 0.0179784 0.018942 0.018204);
    }
    glass2
    {
        type            kqRWallFunction;
        value           nonuniform List<scalar> 2(0.00467701 0.00408113);
    }
    sun
    {
        type            kqRWallFunction;
        value           nonuniform List<scalar> 
14
(
0.00226773
0.002686
0.00280874
0.00308392
0.00334874
0.00360956
0.00388039
0.00416518
0.00440548
0.00455989
0.00457748
0.00441288
0.00402234
0.00325517
)
;
    }
    Table_master
    {
        type            kqRWallFunction;
        value           nonuniform List<scalar> 9(0.00134706 0.0010325 0.000802568 0.00063755 0.000518216 0.000430571 0.000365304 0.000316447 0.000280868);
    }
    Table_slave
    {
        type            kqRWallFunction;
        value           nonuniform List<scalar> 9(0.00170916 0.00143611 0.00126372 0.00114355 0.00104661 0.000954647 0.000871133 0.000787041 0.00069415);
    }
    inlet
    {
        type            turbulentIntensityKineticEnergyInlet;
        intensity       0.05;
        value           uniform 0.000937501;
    }
    outlet
    {
        type            zeroGradient;
    }
}


// ************************************************************************* //
