/*--------------------------------*- C++ -*----------------------------------*\
  =========                 |
  \\      /  F ield         | OpenFOAM: The Open Source CFD Toolbox
   \\    /   O peration     | Website:  https://openfoam.org
    \\  /    A nd           | Version:  6
     \\/     M anipulation  |
\*---------------------------------------------------------------------------*/
FoamFile
{
    version     2.0;
    format      ascii;
    class       surfaceScalarField;
    location    "4290";
    object      phi;
}
// * * * * * * * * * * * * * * * * * * * * * * * * * * * * * * * * * * * * * //

dimensions      [1 0 -1 0 0 0 0];

internalField   nonuniform List<scalar> 
850
(
-0.00305311
0.00311357
-0.00414582
0.0010927
-0.0050149
0.000869088
-0.00570375
0.000688851
-0.00617583
0.000472075
-0.00639707
0.00022124
-0.00632785
-6.9219e-05
-0.00592402
-0.00040383
-0.00517376
-0.000750256
-0.00412859
-0.00104517
-0.00290029
-0.00122831
-0.00164149
-0.0012588
-0.00053899
-0.0011025
0.00013592
-0.00067491
0.000138271
-0.000922421
0.000926077
-0.000690029
-0.000232392
-6.07991e-05
-0.000629229
0.000542641
-0.00060344
0.00100182
-0.000459179
0.00125839
-0.000256573
0.00136651
-0.000108115
0.00141932
-5.28165e-05
0.00144968
-3.03533e-05
0.00146474
-1.5066e-05
0.00146835
-3.61103e-06
0.00146136
6.99942e-06
0.0014381
2.32534e-05
0.00137958
5.85205e-05
0.00125366
0.000125918
0.00105008
0.000203579
0.000793442
0.000256643
0.000798281
-0.00220745
0.00548442
-0.0032951
0.00218035
-0.00420832
0.00178231
-0.00490609
0.00138662
-0.0053876
0.000953583
-0.00563053
0.000464175
-0.0055945
-0.000105253
-0.00524029
-0.000758036
-0.00456678
-0.00142377
-0.00364272
-0.00196923
-0.00258802
-0.002283
-0.00154149
-0.00230534
-0.000628657
-0.00201533
9.2942e-05
-0.00139651
0.000872761
-0.000641547
0.00114861
-0.000272063
0.000956839
0.000196128
0.000969528
4.15195e-05
0.000895558
0.000421775
-0.000612647
0.000786655
-0.00099411
0.00109962
-0.000916407
0.00135047
-0.000710028
0.00140694
-0.000313039
0.00141507
-0.000116251
0.0014258
-6.35413e-05
0.00143478
-3.93388e-05
0.00144005
-2.03337e-05
0.00144222
-5.77454e-06
0.00144182
7.39065e-06
0.00143635
2.87317e-05
0.00139989
9.49764e-05
0.00124701
0.000278797
0.00097855
0.00047204
0.00064461
0.000590583
0.00145527
-0.00156234
0.00729718
-0.00251037
0.00312839
-0.003343
0.00261494
-0.00396557
0.00200918
-0.00441314
0.00140116
-0.00466166
0.000712693
-0.00465599
-0.000110922
-0.00433469
-0.00107933
-0.00371314
-0.00204532
-0.00288871
-0.00279366
-0.00198659
-0.00318512
-0.00112266
-0.00316927
-0.000373453
-0.00276453
0.000240548
-0.00201051
0.000752048
-0.00115305
0.000899398
-0.000419413
0.000707507
0.000388019
0.0016883
0.00143724
-0.000527842
0.00163274
-0.000808146
0.00157514
-0.000936511
0.00160842
-0.000949694
0.00181169
-0.000913293
0.0014988
0.0013827
0.00131932
0.00128013
0.00125995
0.00125433
0.00126188
0.00129076
0.00138589
0.00115887
0.000505823
0.000869986
0.00076092
0.000498888
0.00096168
0.00197273
-0.00109547
0.0087173
-0.00185228
0.00388519
-0.0024366
0.00319926
-0.00288268
0.00245527
-0.00322781
0.00174628
-0.00344068
0.000925557
-0.00344208
-0.00010952
-0.00312366
-0.00139775
-0.00254779
-0.0026212
-0.00184607
-0.00349538
-0.00113041
-0.00390078
-0.000480686
-0.00381899
6.57886e-05
-0.00331101
0.000526384
-0.0024711
0.000902484
-0.00152915
0.00111956
-0.000636486
0.00130374
0.000203835
0.0022575
0.000734535
0.0021677
0.000101745
0.00199492
-0.000355065
0.00190895
-0.00072218
0.00179816
-0.000825712
0.00166596
-0.000817494
0.00143499
-0.000682332
0.0017586
-0.000323761
0.00193627
-0.000177823
0.0020672
-0.000131085
0.002168
-0.000100946
0.00222823
-6.0384e-05
0.00222567
2.40144e-06
0.00213278
9.27358e-05
0.00191323
0.0002194
0.00150707
0.000406003
0.00126968
0.000743214
0.000902425
0.00112818
0.000384082
0.00148002
0.00238045
-0.000756066
0.00986109
-0.00132705
0.00445618
-0.00150962
0.00338184
-0.00168822
0.00263386
-0.00185321
0.00191127
-0.00196224
0.00103459
-0.00191378
-0.000157981
-0.00155674
-0.00175478
-0.00105572
-0.00312222
-0.000537809
-0.00401329
-7.33147e-05
-0.00436527
0.000305339
-0.00419765
0.000596509
-0.00360218
0.000849392
-0.00272399
0.00106873
-0.00174849
0.00127614
-0.000843893
0.00158682
-0.000106839
0.00203037
0.000290979
0.00206424
6.78721e-05
0.00199693
-0.000287753
0.00181244
-0.000537683
0.00162456
-0.000637838
0.00144747
-0.000640405
0.00131879
-0.000553652
0.00137755
-0.000382521
0.00146562
-0.000265887
0.00155009
-0.00021556
0.00163158
-0.000182437
0.00170172
-0.000130522
0.00174075
-3.66318e-05
0.00172469
0.0001088
0.00163843
0.000305662
0.00148619
0.000558238
0.00133011
0.000899298
0.00115113
0.00130716
0.000804094
0.00182706
0.00101982
0.00216473
-0.00109517
0.00213611
-0.00179343
0.000717876
-0.00172066
-0.00063871
0.0109406
-0.00101437
0.00483184
-0.000633432
0.0030009
-0.000448694
0.00244913
-0.000384077
0.00184665
-0.000303723
0.000954231
-5.19359e-05
-0.000409768
0.000334471
-0.00214119
0.000692155
-0.0034799
0.000952003
-0.00427314
0.00109503
-0.00450829
0.00114535
-0.00424798
0.00113926
-0.00359608
0.00111607
-0.0027008
0.00110061
-0.00173303
0.00113278
-0.000876062
0.00126984
-0.000243906
0.00148461
7.6206e-05
0.00153588
1.66095e-05
0.0014379
-0.000189779
0.00126353
-0.000363307
0.00108386
-0.000458174
0.000926564
-0.000483105
0.000821541
-0.00044863
0.000810745
-0.000371725
0.000860092
-0.000315234
0.000936263
-0.00029173
0.00102701
-0.000273185
0.00112584
-0.000229355
0.00122285
-0.000133637
0.00129576
3.58875e-05
0.00133282
0.000268601
0.00134812
0.000542938
0.00138214
0.000865279
0.0014826
0.0012067
0.00168608
0.00162358
0.00203682
0.00181399
0.00233694
0.00183598
0.00182999
0.00122483
0.000174763
-0.00076386
0.0121917
-0.00062148
0.00468946
0.00049228
0.00188714
0.000960631
0.00198078
0.00121799
0.00158929
0.00159949
0.00057273
0.00210277
-0.000913051
0.00243994
-0.00247835
0.00257374
-0.0036137
0.00250619
-0.00420559
0.00227297
-0.00427507
0.00193601
-0.00391102
0.00155909
-0.00321916
0.00120034
-0.00234206
0.00089662
-0.0014293
0.000705088
-0.00068453
0.000653498
-0.000192316
0.000704662
2.50427e-05
0.000712743
8.52794e-06
0.000636482
-0.000113518
0.000509157
-0.000235982
0.00036886
-0.000317877
0.000242961
-0.000357206
0.000156852
-0.00036252
0.000133892
-0.000348765
0.0001629
-0.000344242
0.000222531
-0.000351361
0.000302987
-0.000353642
0.000405275
-0.000331643
0.000534365
-0.000262727
0.00068727
-0.000117018
0.000845211
0.00011066
0.00100722
0.000380934
0.00120907
0.000663428
0.00148366
0.000932109
0.00188404
0.0012232
0.00241744
0.00128059
0.00318504
0.00106838
0.00336162
0.00104825
0.00360519
0.00273593
0.00999912
0.0033917
0.00403368
0.00344936
0.00182948
0.00353504
0.00189509
0.00374631
0.00137802
0.00422222
9.68181e-05
0.00469336
-0.00138419
0.00478839
-0.00257338
0.00451406
-0.00333937
0.0039609
-0.00365244
0.00322974
-0.00354391
0.00242475
-0.00310603
0.00162792
-0.00242233
0.000922023
-0.00163616
0.000347364
-0.000854645
-2.51479e-06
-0.000334651
-0.000140827
-5.40033e-05
-0.000155255
3.94701e-05
-0.000163107
1.63804e-05
-0.000215237
-6.13877e-05
-0.000306056
-0.000145163
-0.000412283
-0.00021165
-0.000511601
-0.000257888
-0.00058587
-0.000288252
-0.000623866
-0.000310768
-0.000633078
-0.00033503
-0.000625253
-0.000359186
-0.000604691
-0.000374204
-0.000566411
-0.000369923
-0.000494193
-0.000334945
-0.000356729
-0.000254481
-0.000146596
-9.94735e-05
0.000104174
0.000130165
0.000388869
0.000378733
0.000707311
0.000613667
0.00108958
0.000840922
0.00150689
0.000863286
0.00189864
0.000676623
0.00120605
0.00174085
0.00509765
0.010598
0.0146275
0.0125614
0.00389562
0.0112292
0.00322727
0.0103407
0.00226651
0.00953392
0.000903652
0.00853148
-0.000381759
0.00735255
-0.00139445
0.00607927
-0.00206609
0.00476044
-0.00233361
0.00342924
-0.00221271
0.00216421
-0.001841
0.00100939
-0.00126751
5.63586e-05
-0.000683127
-0.000566053
-0.000232233
-0.00085964
-4.10646e-05
-0.000956776
4.31328e-05
-0.000976435
5.91292e-05
-0.000991825
3.17701e-05
-0.00103526
-1.79539e-05
-0.00110784
-7.25822e-05
-0.00119687
-0.000122617
-0.00128868
-0.00016608
-0.0013743
-0.000202628
-0.0014515
-0.000233573
-0.00152704
-0.00025949
-0.0016102
-0.000276024
-0.00170952
-0.000274885
-0.00183466
-0.000244785
-0.00199851
-0.000171089
-0.00221651
-3.6484e-05
-0.00248301
0.000167028
-0.00280698
0.000454135
-0.00327095
0.000842701
-0.00398815
0.00133087
-0.0050297
0.00188246
-0.00651691
0.0023505
-0.00825536
0.00241507
-0.00777181
0.0012573
-0.00235715
0.00895045
0.00560355
0.00747188
0.00470584
0.00708001
0.00265838
0.00672918
0.00125449
0.00611919
0.00022823
0.00524677
-0.00052203
0.00417817
-0.000997495
0.00298278
-0.00113821
0.00169119
-0.000921124
0.000430335
-0.000580138
-0.000609534
-0.000227639
-0.00127074
-2.19181e-05
-0.00156322
6.02443e-05
-0.00167789
7.36088e-05
-0.00170786
7.31022e-05
-0.00171363
6.48997e-05
-0.00172866
4.6793e-05
-0.00176747
2.08575e-05
-0.00183139
-8.65997e-06
-0.00191294
-4.10692e-05
-0.00200444
-7.45769e-05
-0.00210375
-0.000103321
-0.0022122
-0.000125122
-0.00233322
-0.000138466
-0.00246896
-0.000140291
-0.00261827
-0.000125575
-0.00277573
-8.73194e-05
-0.00292901
-1.78162e-05
-0.00306256
9.7068e-05
-0.00317483
0.000279303
-0.00327578
0.000555078
-0.00337728
0.000944209
-0.00348611
0.00143969
-0.00356962
0.00196597
-0.00356799
0.00234888
-0.00331004
0.00215711
-0.00195005
-0.000102687
-0.00422387
-0.000826095
0.00648296
0.000742107
0.00313763
0.00140782
0.00199267
0.00164673
0.00101558
0.0015829
0.000292057
0.00121188
-0.000151016
0.000529664
-0.000315273
-0.000363763
-0.000244784
-0.00124108
-4.38053e-05
-0.00188638
6.51619e-05
-0.00222712
0.0001131
-0.00235808
0.000109045
-0.00238118
8.3341e-05
-0.00237095
6.338e-05
-0.00234988
5.20345e-05
-0.00232932
4.43367e-05
-0.00231833
3.58054e-05
-0.00232221
2.47375e-05
-0.00234158
1.07123e-05
-0.00237543
-7.2278e-06
-0.00242402
-2.59877e-05
-0.00248537
-4.19698e-05
-0.00255738
-5.31066e-05
-0.00263754
-5.83072e-05
-0.00272178
-5.60499e-05
-0.00280352
-4.38336e-05
-0.0028733
-1.75468e-05
-0.00291854
2.74311e-05
-0.00291853
9.70505e-05
-0.00284797
0.000208742
-0.00267232
0.000379431
-0.00236026
0.00063215
-0.00190395
0.000983385
-0.00128938
0.0013514
-0.000299694
0.0013592
0.00114764
0.000709774
0.00164262
-0.000597657
-0.00248957
-0.0120486
-0.0155771
-0.00905364
-0.00588859
-0.00387365
-0.00283947
-0.00253239
-0.0026714
-0.00297674
-0.00321303
-0.00324916
-0.00317672
-0.00305648
-0.00294032
-0.00284986
-0.00277933
-0.00272012
-0.00266856
-0.00262549
-0.00259344
-0.00257542
-0.00257537
-0.00259416
-0.00262905
-0.00267521
-0.00272671
-0.00277611
-0.00281347
-0.00282473
-0.00279122
-0.00268831
-0.00247394
-0.00208913
-0.00145188
-0.000463683
0.000892142
0.00225548
0.0029693
0.00237582
)
;

boundaryField
{
    floor
    {
        type            calculated;
        value           nonuniform List<scalar> 
36
(
0
0
0
0
0
0
0
0
0
0
0
0
0
0
0
0
0
0
0
-4.83914e-06
-1.23781e-05
-1.85697e-05
-2.36404e-05
-2.11162e-05
-1.96191e-05
-1.84535e-05
-2.35097e-06
-3.78399e-06
-4.35946e-06
-5.04476e-06
-3.65658e-06
-7.64391e-06
-1.10004e-05
-1.12624e-05
-1.38364e-05
-1.19395e-05
)
;
    }
    ceiling
    {
        type            calculated;
        value           nonuniform List<scalar> 
43
(
-4.1844e-05
-4.11786e-05
-4.04782e-05
-2.74141e-05
-2.22701e-05
-1.86048e-05
-1.50289e-05
-1.20046e-05
-9.92941e-06
-8.50213e-06
-7.66632e-06
-7.2857e-06
-7.13797e-06
-7.1112e-06
-7.12496e-06
-7.1463e-06
-7.1775e-06
-7.22032e-06
-7.26663e-06
-7.30722e-06
-7.31482e-06
-7.27612e-06
-7.19264e-06
-7.0811e-06
-6.95227e-06
-6.80914e-06
-6.64851e-06
-6.47522e-06
-6.28371e-06
-6.0786e-06
-5.85897e-06
-5.62509e-06
-5.37647e-06
-5.10581e-06
-4.8112e-06
-4.42481e-06
-4.13949e-06
-4.04925e-06
-4.18129e-06
-3.60358e-06
6.94074e-06
4.17887e-06
-5.3314e-05
)
;
    }
    sWall
    {
        type            calculated;
        value           uniform -0.0002414;
    }
    nWall
    {
        type            calculated;
        value           nonuniform List<scalar> 6(-5.43171e-05 -6.54339e-05 -6.88139e-05 -8.33265e-05 -9.16855e-05 -0.00011014);
    }
    sideWalls
    {
        type            empty;
        value           nonuniform 0();
    }
    glass1
    {
        type            calculated;
        value           nonuniform List<scalar> 9(-6.04583e-05 -0.000163402 -0.000250424 -0.000324644 -0.000387723 -0.000440785 -0.000487271 -0.000543331 -0.000605862);
    }
    glass2
    {
        type            calculated;
        value           nonuniform List<scalar> 2(-0.000286411 -0.000317012);
    }
    sun
    {
        type            calculated;
        value           uniform 0;
    }
    Table_master
    {
        type            calculated;
        value           nonuniform List<scalar> 9(-1.5364e-07 -1.53789e-07 -1.53839e-07 -1.53869e-07 -1.53889e-07 -1.53902e-07 -1.53906e-07 -1.539e-07 -1.5387e-07);
    }
    Table_slave
    {
        type            calculated;
        value           nonuniform List<scalar> 9(1.5353e-07 1.53515e-07 1.53468e-07 1.53431e-07 1.53408e-07 1.53408e-07 1.53413e-07 1.53451e-07 1.53535e-07);
    }
    inlet
    {
        type            calculated;
        value           uniform -0.0106584;
    }
    outlet
    {
        type            calculated;
        value           nonuniform List<scalar> 2(0.0123318 0.00356968);
    }
}


// ************************************************************************* //
