/*--------------------------------*- C++ -*----------------------------------*\
  =========                 |
  \\      /  F ield         | OpenFOAM: The Open Source CFD Toolbox
   \\    /   O peration     | Website:  https://openfoam.org
    \\  /    A nd           | Version:  6
     \\/     M anipulation  |
\*---------------------------------------------------------------------------*/
FoamFile
{
    version     2.0;
    format      ascii;
    class       volScalarField;
    location    "100";
    object      alphat;
}
// * * * * * * * * * * * * * * * * * * * * * * * * * * * * * * * * * * * * * //

dimensions      [1 -1 -1 0 0 0 0];

internalField   nonuniform List<scalar> 
459
(
0.000869861
0.000900982
0.000877507
0.000908618
0.000936463
0.000960601
0.000981807
0.001001
0.0010192
0.00103766
0.00105358
0.00106587
0.0010744
0.00108055
0.00108402
0.000886573
0.000853936
0.000813846
0.000791851
0.000776126
0.000752409
0.000712288
0.000673073
0.000635852
0.000600775
0.000568103
0.000537961
0.000510369
0.000485244
0.000462324
0.000441062
0.000421366
0.000428372
0.00040746
0.00137241
0.00207083
0.00163236
0.00192058
0.00203606
0.00216396
0.00229464
0.00241657
0.00251421
0.00256744
0.00258583
0.00254416
0.00240643
0.0021219
0.00165236
0.001143
0.00103494
0.00107193
0.00223868
0.00293549
0.00336505
0.00346564
0.00320503
0.00247213
0.00205991
0.00175844
0.00152902
0.0013497
0.00120806
0.00109504
0.0010026
0.000924011
0.000862334
0.000807388
0.00110561
0.000584451
0.00182966
0.0032155
0.00172731
0.0026783
0.00284856
0.0029692
0.00306969
0.00315133
0.00321417
0.00325283
0.00326316
0.00321626
0.00307656
0.00280407
0.00238448
0.00187764
0.00130939
0.00126273
0.00388319
0.00468535
0.00484145
0.00464699
0.00378323
0.000931644
0.00078826
0.000692994
0.000626631
0.000577961
0.000540599
0.000510953
0.00048719
0.000469373
0.000540757
0.000638372
0.0013203
0.000716465
0.00229034
0.00490407
0.00171415
0.00304225
0.00335319
0.00345602
0.00352309
0.00357372
0.00361535
0.0036473
0.00366932
0.00366465
0.00360616
0.0034488
0.00313137
0.00261269
0.00196333
0.00146178
0.00432986
0.00481237
0.00505187
0.00506249
0.00484053
0.00398187
0.000967456
0.000913182
0.000896905
0.000890167
0.000880789
0.000860645
0.000824154
0.000785692
0.000740596
0.000716652
0.000741464
0.00173623
0.000786247
0.00274506
0.00704301
0.00208159
0.0029682
0.00360974
0.00372045
0.00376404
0.00379048
0.00381389
0.00383985
0.00386922
0.00391116
0.00395692
0.00398325
0.0039644
0.0038986
0.0038408
0.00386485
0.00413641
0.00444499
0.00478312
0.00485269
0.00479681
0.00458741
0.00405642
0.00399603
0.0039961
0.00397419
0.00389659
0.00374721
0.00351466
0.00305808
0.00249236
0.00193237
0.00143626
0.00152576
0.00116334
0.000920351
0.00107608
0.00121414
0.00319232
0.00923368
0.00332884
0.00257447
0.00357165
0.00381461
0.00388315
0.003902
0.00389543
0.00388717
0.00388614
0.00393564
0.00401756
0.00409613
0.00411794
0.00402092
0.0037787
0.00350366
0.00345588
0.00386766
0.00452804
0.00467484
0.00470193
0.00470016
0.00469088
0.00473451
0.00476403
0.0047354
0.0046367
0.00447836
0.00428356
0.00398708
0.00352332
0.00291811
0.00226917
0.00162515
0.00146043
0.00131959
0.00185068
0.00129826
0.00364831
0.010991
0.00613963
0.00287764
0.00264352
0.00322928
0.0036793
0.00391977
0.00400073
0.00391093
0.00383781
0.00387145
0.0039621
0.00407676
0.0041612
0.00412239
0.00384246
0.00334767
0.00300138
0.00336969
0.00443326
0.0046346
0.00470191
0.0047433
0.00478907
0.00483523
0.00484484
0.00478128
0.00465101
0.00449186
0.00435419
0.00425522
0.00397876
0.00346736
0.00288831
0.00229852
0.00203555
0.00209016
0.00222472
0.00159447
0.00377347
0.0114104
0.00866667
0.00597289
0.00390623
0.0029976
0.00307937
0.00353489
0.00394426
0.00386565
0.00377331
0.0037674
0.00383274
0.00394212
0.00406099
0.00412922
0.00399281
0.00346212
0.00277781
0.00291853
0.00444858
0.00469613
0.00482134
0.00488154
0.00490241
0.00489309
0.00482918
0.00469289
0.00450833
0.00434645
0.00428477
0.00436112
0.00448942
0.00412537
0.00383073
0.00385404
0.00447357
0.00558717
0.00672191
0.00218385
0.00370485
0.00453903
0.00495475
0.00500601
0.00458143
0.00399767
0.00356168
0.00336055
0.00333843
0.0033687
0.0034353
0.00352798
0.00363833
0.00375691
0.00387416
0.00397555
0.00399355
0.00364794
0.00272715
0.00251744
0.00451375
0.00480485
0.00504886
0.00514966
0.00513763
0.00506881
0.0049253
0.00468042
0.00435235
0.00401613
0.00376023
0.00361697
0.00355708
0.00353233
0.00356088
0.00360807
0.00355332
0.00331232
0.00300791
0.00199521
0.00210483
0.0033638
0.00393982
0.00396616
0.00380271
0.00364278
0.00353992
0.00348651
0.00348662
0.0035223
0.00357303
0.00362557
0.00367913
0.00374755
0.00381512
0.00358137
0.00266122
0.00224323
0.00454673
0.00486234
0.00535236
0.00556905
0.00556751
0.0055234
0.00542421
0.00521255
0.00487659
0.00447181
0.00410921
0.00389092
0.00379155
0.00376277
0.00375299
0.0036887
0.00348409
0.00310162
0.00259586
0.0016778
0.00265605
0.00436248
0.00464248
0.00449111
0.00428956
0.00408446
0.00390824
0.00376351
0.00361117
0.00343196
0.00325034
0.00308732
0.00296408
0.00290506
0.00291173
0.00281788
0.00226099
0.00191584
0.00430689
0.00448779
0.00516633
0.00543498
0.00545194
0.0054592
0.00545561
0.00539138
0.00524596
0.00502041
0.00472114
0.00449713
0.00437275
0.00432856
0.00431703
0.00431579
0.00426406
0.00413888
0.00331104
0.00171504
0.00270077
0.00274879
0.00280148
0.00306364
0.00291205
0.00257996
0.00239465
0.00224049
0.00210691
0.00198866
0.00188428
0.00179252
0.00170831
0.00162917
0.0015543
0.0014843
0.00142062
0.00136243
0.00130316
0.00128731
0.00141035
0.00141871
0.00145318
0.00146612
0.00146714
0.00146609
0.00146425
0.00146281
0.00146595
0.00148056
0.00151656
0.00156723
0.00163615
0.00172024
0.0018167
0.00193681
0.00196686
0.00191641
0.00178536
0.00164656
)
;

boundaryField
{
    floor
    {
        type            compressible::alphatWallFunction;
        Prt             0.85;
        value           nonuniform List<scalar> 
29
(
0.000153921
0.000126081
0.000121402
0.000115631
0.00011245
0.000110169
0.000106721
0.000100862
9.50957e-05
8.95847e-05
8.4355e-05
7.94497e-05
7.48933e-05
7.06944e-05
6.68461e-05
6.33138e-05
6.00172e-05
5.69451e-05
5.80362e-05
5.47604e-05
5.47597e-05
8.18921e-05
0.000101456
0.00011162
0.000153919
0.00012608
0.000152245
0.000178636
0.000205676
)
;
    }
    ceiling
    {
        type            compressible::alphatWallFunction;
        Prt             0.85;
        value           nonuniform List<scalar> 
43
(
0.000366746
0.000372797
0.000379426
0.000412274
0.000393374
0.000351563
0.000327982
0.000308215
0.000290969
0.000275602
0.000261956
0.000249891
0.000238759
0.000228242
0.000218242
0.000208843
0.000200249
0.000192358
0.00018428
0.000182146
0.000198937
0.000200007
0.000204655
0.000206401
0.000206539
0.000206397
0.000206149
0.000205954
0.000206376
0.000208346
0.000213186
0.000219979
0.000229179
0.000240347
0.000253083
0.000268842
0.000272767
0.000266174
0.000248957
0.000230571
0.000491522
0.000592284
0.000361039
)
;
    }
    sWall
    {
        type            compressible::alphatWallFunction;
        Prt             0.85;
        value           uniform 0.000365476;
    }
    nWall
    {
        type            compressible::alphatWallFunction;
        Prt             0.85;
        value           nonuniform List<scalar> 6(0.000171647 0.000183176 0.000223163 0.000234304 0.00023924 0.000230148);
    }
    sideWalls
    {
        type            empty;
    }
    glass1
    {
        type            compressible::alphatWallFunction;
        Prt             0.85;
        value           nonuniform List<scalar> 9(0.000119675 0.00018826 0.00024843 0.000307567 0.000364827 0.000420265 0.000476006 0.000491348 0.000483299);
    }
    glass2
    {
        type            compressible::alphatWallFunction;
        Prt             0.85;
        value           nonuniform List<scalar> 2(0.000297619 0.000273452);
    }
    sun
    {
        type            compressible::alphatWallFunction;
        Prt             0.85;
        value           nonuniform List<scalar> 
14
(
0.000123701
0.000128124
0.000124772
0.000129211
0.000133169
0.000136589
0.000139585
0.00014229
0.000144849
0.000147439
0.00014967
0.000151387
0.000152579
0.000153437
)
;
    }
    heatsource1
    {
        type            compressible::alphatWallFunction;
        Prt             0.85;
        value           nonuniform List<scalar> 3(0.000131147 0.00015309 0.000172234);
    }
    heatsource2
    {
        type            compressible::alphatWallFunction;
        Prt             0.85;
        value           nonuniform List<scalar> 4(0.000162401 0.000147342 0.00014734 0.000185289);
    }
    Table_master
    {
        type            compressible::alphatWallFunction;
        Prt             0.85;
        value           nonuniform List<scalar> 9(0.000132755 0.000112198 9.82952e-05 8.84731e-05 8.11887e-05 7.55449e-05 7.10318e-05 6.73906e-05 6.46457e-05);
    }
    Table_slave
    {
        type            compressible::alphatWallFunction;
        Prt             0.85;
        value           nonuniform List<scalar> 9(0.000137834 0.000130132 0.00012781 0.000126847 0.000125506 0.000122622 0.000117377 0.000111819 0.000105261);
    }
    inlet
    {
        type            fixedValue;
        value           uniform 1.94e-05;
    }
    outlet
    {
        type            zeroGradient;
    }
}


// ************************************************************************* //
