/*--------------------------------*- C++ -*----------------------------------*\
  =========                 |
  \\      /  F ield         | OpenFOAM: The Open Source CFD Toolbox
   \\    /   O peration     | Website:  https://openfoam.org
    \\  /    A nd           | Version:  6
     \\/     M anipulation  |
\*---------------------------------------------------------------------------*/
FoamFile
{
    version     2.0;
    format      ascii;
    class       volScalarField;
    location    "100";
    object      epsilon;
}
// * * * * * * * * * * * * * * * * * * * * * * * * * * * * * * * * * * * * * //

dimensions      [0 2 -3 0 0 0 0];

internalField   nonuniform List<scalar> 
459
(
0.000145323
0.00016086
0.000148602
0.000164978
0.000180618
0.000194951
0.00020815
0.000220602
0.000232854
0.000245733
0.000257222
0.000266322
0.000272763
0.000277467
0.000280148
0.000153313
0.000136934
0.000118514
0.00010914
0.000102749
9.36039e-05
7.94125e-05
6.70044e-05
5.64895e-05
4.76441e-05
4.02825e-05
3.42013e-05
2.92005e-05
2.50933e-05
2.16999e-05
1.8839e-05
1.64236e-05
1.72499e-05
1.48451e-05
0.000572303
0.00135024
0.000150117
0.000126271
0.000126178
0.000128532
0.000132761
0.000139949
0.000151239
0.000167651
0.000187151
0.000208245
0.000228827
0.000246913
0.00026849
0.000328365
0.0002438
0.000270906
0.000161568
0.000117619
0.000100644
8.80987e-05
7.74066e-05
6.98484e-05
5.79127e-05
4.75744e-05
3.89362e-05
3.19313e-05
2.63699e-05
2.20019e-05
1.8608e-05
1.61228e-05
1.4664e-05
1.52114e-05
7.44675e-05
4.37768e-05
0.00135973
0.00443296
0.000266446
0.000130173
0.000123379
0.000126591
0.000133242
0.000143637
0.000158029
0.000176243
0.000196762
0.000217155
0.000236004
0.000255394
0.000285182
0.000346943
0.000493685
0.000442796
0.000187266
0.000148045
0.000120172
0.000100192
9.26866e-05
0.00017765
0.000107591
7.30968e-05
5.40345e-05
4.23885e-05
3.46806e-05
2.92755e-05
2.53723e-05
2.26843e-05
1.88392e-05
2.0615e-05
0.000178299
8.0629e-05
0.00267384
0.0102704
0.000586757
0.000148393
0.000129615
0.000135435
0.000145088
0.000158178
0.000175018
0.000195807
0.000218805
0.000238473
0.000252339
0.000263283
0.000281424
0.000328884
0.000453273
0.000686826
0.000356215
0.000227942
0.000174531
0.000132519
0.000105199
9.74906e-05
0.000199007
0.000167331
0.000158522
0.000154961
0.000150099
0.00014002
0.000122939
0.000106506
8.91861e-05
5.62056e-05
4.66319e-05
0.000429834
0.000106573
0.0046144
0.018911
0.00135012
0.000186214
0.000135319
0.000143422
0.000158513
0.00017883
0.00020489
0.000236783
0.000271224
0.000296398
0.000307731
0.000306897
0.000297937
0.000287225
0.000284043
0.000283164
0.0002484
0.000232901
0.000194727
0.000149729
0.000122371
0.000109315
0.000112452
0.000112871
0.000115036
0.000117021
0.000116158
0.00010986
9.73316e-05
8.48202e-05
7.51059e-05
6.33006e-05
5.6999e-05
0.000239707
0.0001585
0.000171062
0.00027354
0.000392986
0.00727221
0.0277522
0.00312515
0.000314008
0.000152714
0.000151821
0.000169985
0.000198889
0.000239803
0.000295462
0.000353039
0.000386849
0.000396897
0.000389672
0.000368649
0.000333562
0.000285421
0.000241268
0.000228452
0.000244487
0.000231682
0.000181995
0.00015248
0.000137965
0.000135027
0.000138294
0.0001449
0.000152317
0.000157228
0.000155402
0.000141813
0.00011584
9.34911e-05
7.60329e-05
6.94324e-05
0.000139263
0.000151639
0.000153214
0.000526004
0.000480237
0.0108711
0.0321919
0.00753066
0.00123745
0.000377479
0.000238154
0.00022494
0.000251049
0.000304625
0.000406733
0.000487051
0.00051448
0.000510221
0.000490292
0.000459894
0.000415332
0.00034892
0.000272859
0.000237466
0.000264365
0.000290781
0.000234843
0.000201664
0.000185102
0.000180198
0.000183331
0.000192167
0.000205309
0.000220075
0.000233274
0.000236802
0.000210677
0.000170917
0.00014169
0.00013407
0.000175632
0.000253264
0.000448833
0.000998181
0.0008897
0.0120613
0.0419357
0.0192245
0.00903595
0.00370115
0.0015249
0.000845337
0.000666537
0.000654829
0.000727305
0.00072988
0.000694246
0.000646856
0.000599343
0.000553744
0.00050602
0.00044224
0.000345701
0.000270425
0.000288991
0.000376422
0.000317634
0.000283308
0.000264574
0.000256343
0.00025614
0.000262921
0.000277483
0.000302418
0.000341073
0.000393383
0.000451214
0.000459741
0.000496788
0.000633543
0.00107065
0.00221117
0.00437906
0.012062
0.00229375
0.0114577
0.0209872
0.0162952
0.0119283
0.0080801
0.00516412
0.00330099
0.00223739
0.00167385
0.00131311
0.00107213
0.000908429
0.000794003
0.000710367
0.000645657
0.00059293
0.000545987
0.000456742
0.000334326
0.000322173
0.000497192
0.000451023
0.000426237
0.000408443
0.000394092
0.000384308
0.000379162
0.000381396
0.000399134
0.000445479
0.000534269
0.000676539
0.000881141
0.00115719
0.00157533
0.00211912
0.00268317
0.00309333
0.0033932
0.00175384
0.00552362
0.00678978
0.00614176
0.00473472
0.00345485
0.00253561
0.00192556
0.00151767
0.00124336
0.00105482
0.000920281
0.000820161
0.000744084
0.00068996
0.000656348
0.000572718
0.000420063
0.000376257
0.000669869
0.000675343
0.000698246
0.000701849
0.000686563
0.000670232
0.000652149
0.000628869
0.000605001
0.000596
0.000626114
0.000720752
0.00088505
0.00112475
0.0014363
0.00176086
0.00197008
0.00190579
0.00147395
0.00104194
0.00402083
0.00843447
0.00680917
0.00499544
0.00370958
0.00279152
0.00214825
0.00169369
0.00135983
0.00111221
0.000927909
0.000791818
0.000694873
0.00063296
0.000598634
0.000562269
0.000485214
0.000443313
0.000823614
0.00100152
0.00112553
0.00116736
0.00116494
0.00115236
0.00113083
0.00109472
0.00104727
0.00100124
0.000975421
0.00100609
0.00110855
0.00128955
0.00153913
0.00184354
0.0021036
0.00218817
0.00135659
0.00111269
0.00426841
0.00449871
0.00476226
0.00627915
0.00541269
0.00377474
0.00302047
0.0024747
0.0020583
0.00173096
0.00147253
0.00126776
0.00109738
0.000951856
0.000826598
0.000719897
0.000631171
0.000556744
0.000487195
0.0004701
0.000618923
0.000629239
0.000676084
0.000694307
0.00069577
0.000694275
0.000691661
0.000689624
0.000694067
0.000715037
0.000768468
0.000848106
0.000965015
0.00112163
0.00132119
0.00160133
0.00167728
0.00155164
0.00125464
0.000984585
)
;

boundaryField
{
    floor
    {
        Cmu             0.09;
        kappa           0.41;
        E               9.8;
        type            epsilonWallFunction;
        value           nonuniform List<scalar> 
29
(
0.000280148
0.000153313
0.000136934
0.000118514
0.00010914
0.000102749
9.36039e-05
7.94125e-05
6.70044e-05
5.64895e-05
4.76441e-05
4.02825e-05
3.42013e-05
2.92005e-05
2.50933e-05
2.16999e-05
1.8839e-05
1.64236e-05
1.72499e-05
1.48451e-05
1.48451e-05
4.37768e-05
8.0629e-05
0.000106573
0.000280148
0.000153313
0.000270906
0.000442796
0.000686826
)
;
    }
    ceiling
    {
        Cmu             0.09;
        kappa           0.41;
        E               9.8;
        type            epsilonWallFunction;
        value           nonuniform List<scalar> 
43
(
0.00426841
0.00449871
0.00476226
0.00627915
0.00541269
0.00377474
0.00302047
0.0024747
0.0020583
0.00173096
0.00147253
0.00126776
0.00109738
0.000951856
0.000826598
0.000719897
0.000631171
0.000556744
0.000487195
0.0004701
0.000618923
0.000629239
0.000676084
0.000694307
0.00069577
0.000694275
0.000691661
0.000689624
0.000694067
0.000715037
0.000768468
0.000848106
0.000965015
0.00112163
0.00132119
0.00160133
0.00167728
0.00155164
0.00125464
0.000984585
0.0114577
0.0209872
0.00402083
)
;
    }
    sWall
    {
        Cmu             0.09;
        kappa           0.41;
        E               9.8;
        type            epsilonWallFunction;
        value           uniform 0.00426841;
    }
    nWall
    {
        Cmu             0.09;
        kappa           0.41;
        E               9.8;
        type            epsilonWallFunction;
        value           nonuniform List<scalar> 6(0.000392986 0.000480237 0.0008897 0.00104194 0.00111269 0.000984585);
    }
    sideWalls
    {
        type            empty;
    }
    glass1
    {
        Cmu             0.09;
        kappa           0.41;
        E               9.8;
        type            epsilonWallFunction;
        value           nonuniform List<scalar> 9(0.000145323 0.000572303 0.00135973 0.00267384 0.0046144 0.00727221 0.0108711 0.0120613 0.0114577);
    }
    glass2
    {
        Cmu             0.09;
        kappa           0.41;
        E               9.8;
        type            epsilonWallFunction;
        value           nonuniform List<scalar> 2(0.00229375 0.00175384);
    }
    sun
    {
        Cmu             0.09;
        kappa           0.41;
        E               9.8;
        type            epsilonWallFunction;
        value           nonuniform List<scalar> 
14
(
0.000145323
0.00016086
0.000148602
0.000164978
0.000180618
0.000194951
0.00020815
0.000220602
0.000232854
0.000245733
0.000257222
0.000266322
0.000272763
0.000277467
)
;
    }
    heatsource1
    {
        Cmu             0.09;
        kappa           0.41;
        E               9.8;
        type            epsilonWallFunction;
        value           nonuniform List<scalar> 3(0.000171062 0.00027354 0.000392986);
    }
    heatsource2
    {
        Cmu             0.09;
        kappa           0.41;
        E               9.8;
        type            epsilonWallFunction;
        value           nonuniform List<scalar> 4(0.000328365 0.0002438 0.0002438 0.000493685);
    }
    Table_master
    {
        Cmu             0.09;
        kappa           0.41;
        E               9.8;
        type            epsilonWallFunction;
        value           nonuniform List<scalar> 9(0.00017765 0.000107591 7.30968e-05 5.40345e-05 4.23885e-05 3.46806e-05 2.92755e-05 2.53723e-05 2.26843e-05);
    }
    Table_slave
    {
        Cmu             0.09;
        kappa           0.41;
        E               9.8;
        type            epsilonWallFunction;
        value           nonuniform List<scalar> 9(0.000199007 0.000167331 0.000158522 0.000154961 0.000150099 0.00014002 0.000122939 0.000106506 8.91861e-05);
    }
    inlet
    {
        type            turbulentMixingLengthDissipationRateInlet;
        mixingLength    0.01;
        phi             phi;
        k               k;
        value           uniform 0.000471672;
    }
    outlet
    {
        type            zeroGradient;
    }
}


// ************************************************************************* //
