/*--------------------------------*- C++ -*----------------------------------*\
  =========                 |
  \\      /  F ield         | OpenFOAM: The Open Source CFD Toolbox
   \\    /   O peration     | Website:  https://openfoam.org
    \\  /    A nd           | Version:  6
     \\/     M anipulation  |
\*---------------------------------------------------------------------------*/
FoamFile
{
    version     2.0;
    format      ascii;
    class       volScalarField;
    location    "100";
    object      nut;
}
// * * * * * * * * * * * * * * * * * * * * * * * * * * * * * * * * * * * * * //

dimensions      [0 2 -1 0 0 0 0];

internalField   nonuniform List<scalar> 
459
(
0.000743277
0.000768872
0.000748819
0.000775376
0.000799144
0.000819749
0.000837851
0.000854238
0.000869771
0.000885524
0.000899118
0.000909601
0.000916878
0.000922121
0.000925079
0.000756538
0.000728634
0.000694397
0.000675604
0.000662163
0.000641906
0.000607661
0.000574188
0.000542415
0.000512471
0.000484576
0.00045884
0.000435279
0.000413821
0.000394247
0.000376087
0.000359265
0.000365211
0.000347394
0.00117378
0.00176731
0.00139298
0.00163896
0.00173755
0.00184674
0.00195829
0.00206239
0.00214575
0.0021912
0.00220691
0.00217134
0.00205375
0.00181086
0.00141009
0.000975377
0.000883106
0.000914668
0.00191007
0.00250444
0.00287078
0.00295648
0.00273405
0.00210875
0.00175703
0.00149981
0.00130405
0.00115105
0.00103018
0.000933731
0.000854842
0.000787777
0.000735142
0.000688253
0.000942408
0.000498249
0.00156626
0.00274465
0.00147409
0.00228575
0.00243116
0.00253423
0.0026201
0.00268988
0.00274359
0.00277664
0.00278547
0.0027454
0.00262605
0.00239333
0.00203506
0.0016024
0.0011174
0.00107749
0.00331327
0.00399749
0.00413049
0.00396443
0.00322741
0.000794714
0.000672348
0.000591044
0.0005344
0.000492855
0.000460957
0.000435643
0.00041535
0.000400131
0.000460962
0.000544142
0.00112535
0.000610775
0.00196227
0.00418691
0.00146298
0.00259657
0.00286215
0.00295013
0.00300758
0.00305098
0.00308666
0.00311404
0.00313285
0.00312879
0.00307866
0.00294405
0.00267281
0.00222988
0.00167554
0.00124746
0.00369485
0.00410644
0.00431059
0.00431944
0.00412987
0.00339714
0.000825355
0.000779029
0.000765125
0.000759361
0.000751344
0.000734142
0.000702992
0.00067016
0.000631665
0.000611123
0.000632151
0.00148001
0.000670285
0.0023537
0.00601483
0.00177675
0.00253355
0.00308142
0.00317622
0.00321375
0.00323661
0.00325685
0.0032792
0.00330435
0.00334007
0.00337888
0.00340096
0.0033844
0.00332779
0.00327812
0.00329844
0.00353008
0.00379331
0.00408165
0.00414082
0.00409295
0.00391411
0.00346095
0.00340934
0.00340934
0.00339057
0.00332429
0.00319675
0.00299824
0.00260862
0.00212591
0.00164804
0.0012247
0.00130075
0.000991753
0.000784812
0.000917735
0.00103555
0.00273905
0.0078886
0.00284178
0.00219761
0.00304909
0.00325686
0.00331577
0.00333226
0.00332704
0.0033203
0.00331959
0.00336182
0.00343148
0.00349808
0.00351612
0.0034327
0.00322547
0.00299043
0.00294952
0.0033009
0.0038643
0.0039894
0.00401233
0.00401067
0.00400264
0.00403978
0.00406489
0.00404038
0.00395608
0.00382086
0.00365448
0.00340132
0.00300547
0.00248894
0.00193514
0.00138565
0.00124509
0.0011251
0.00157798
0.00110712
0.00313186
0.0093958
0.00524398
0.00245692
0.00225694
0.00275727
0.00314186
0.00334762
0.00341723
0.00334105
0.00327893
0.00330767
0.00338479
0.00348221
0.00355369
0.00351986
0.00328026
0.00285751
0.00256176
0.0028761
0.00378368
0.00395535
0.00401264
0.00404782
0.00408678
0.0041261
0.00413423
0.00407993
0.00396868
0.00383276
0.00371509
0.00363036
0.00339418
0.00295761
0.00246337
0.00196005
0.00173563
0.0017822
0.00189698
0.00135974
0.00324222
0.00977323
0.00741578
0.00510602
0.00333735
0.0025604
0.00263014
0.00301938
0.00336941
0.00330289
0.00322431
0.0032192
0.0032747
0.00336763
0.00346855
0.00352614
0.00340897
0.00295541
0.00237105
0.00249117
0.003797
0.00400815
0.00411486
0.00416613
0.00418385
0.00417585
0.00412126
0.0040049
0.00384735
0.00370911
0.00365632
0.00372123
0.00383026
0.00351931
0.00326766
0.00328724
0.0038156
0.00476594
0.00573454
0.00186448
0.0031872
0.00389968
0.00425274
0.00429169
0.00392355
0.00342094
0.0030463
0.00287343
0.00285411
0.00287966
0.00293617
0.00301489
0.00310867
0.00320943
0.00330902
0.00339505
0.00340984
0.00311425
0.00232791
0.00214892
0.00385285
0.00410124
0.00430938
0.00439531
0.00438499
0.00432622
0.00420372
0.00399471
0.0037147
0.00342773
0.00320932
0.00308709
0.00303606
0.00301507
0.00303975
0.00308052
0.00303441
0.00282917
0.00256949
0.00170493
0.00178024
0.00286101
0.00336064
0.00338702
0.00324877
0.00311255
0.00302471
0.00297899
0.00297891
0.00300912
0.00305213
0.00309666
0.00314204
0.00320009
0.00325741
0.00305746
0.0022717
0.00191493
0.00388122
0.00415064
0.00456881
0.0047537
0.00475236
0.0047147
0.00463005
0.00444942
0.00416272
0.00381727
0.00350785
0.00332161
0.00323689
0.00321252
0.00320446
0.00314996
0.00297565
0.00264928
0.00221738
0.00143325
0.00224808
0.00371029
0.00395706
0.00383202
0.0036618
0.00348743
0.00333722
0.00321366
0.00308357
0.00293048
0.00277532
0.00263604
0.00253072
0.00248022
0.00248581
0.00240557
0.00193008
0.00163553
0.00367673
0.0038313
0.00441046
0.00463975
0.00465423
0.00466043
0.00465737
0.00460257
0.00447848
0.004286
0.00403061
0.00383946
0.0037334
0.00369585
0.00368627
0.00368555
0.00364174
0.00353509
0.00282794
0.00146499
0.0022933
0.00233382
0.00237854
0.00260819
0.00248223
0.00220124
0.0020436
0.00191226
0.00179836
0.00169747
0.0016084
0.0015301
0.00145823
0.0013907
0.0013268
0.00126706
0.00121271
0.00116305
0.00111247
0.00109904
0.00120419
0.00121138
0.0012408
0.00125185
0.00125272
0.00125183
0.00125026
0.00124904
0.00125171
0.0012642
0.00129493
0.00133821
0.00139707
0.0014689
0.00155131
0.001654
0.00167975
0.00163671
0.00152481
0.00140645
)
;

boundaryField
{
    floor
    {
        type            nutkWallFunction;
        Cmu             0.09;
        kappa           0.41;
        E               9.8;
        value           nonuniform List<scalar> 
29
(
0.000111853
9.16434e-05
8.82412e-05
8.40505e-05
8.17389e-05
8.00811e-05
7.75767e-05
7.33222e-05
6.91358e-05
6.5134e-05
6.1336e-05
5.77732e-05
5.44633e-05
5.14127e-05
4.86164e-05
4.60496e-05
4.36539e-05
4.14212e-05
4.22107e-05
3.98338e-05
3.98338e-05
5.95204e-05
7.37093e-05
8.1083e-05
0.000111853
9.16434e-05
0.000110628
0.000129778
0.000149408
)
;
    }
    ceiling
    {
        type            nutkWallFunction;
        Cmu             0.09;
        kappa           0.41;
        E               9.8;
        value           nonuniform List<scalar> 
43
(
0.000264921
0.000269261
0.000274043
0.000298517
0.000285176
0.000255106
0.000238055
0.000223738
0.000211237
0.000200093
0.000190194
0.000181441
0.000173365
0.000165736
0.00015848
0.000151661
0.000145425
0.000139699
0.000133838
0.0001323
0.0001445
0.000145281
0.000148654
0.000149921
0.000150022
0.000149919
0.000149739
0.000149598
0.000149905
0.000151335
0.000154849
0.00015978
0.00016646
0.000174569
0.000183819
0.000195273
0.000198132
0.000193351
0.000180853
0.000167525
0.000359438
0.000432568
0.000260009
)
;
    }
    sWall
    {
        type            nutkWallFunction;
        Cmu             0.09;
        kappa           0.41;
        E               9.8;
        value           uniform 0.000264991;
    }
    nWall
    {
        type            nutkWallFunction;
        Cmu             0.09;
        kappa           0.41;
        E               9.8;
        value           nonuniform List<scalar> 6(0.000124876 0.000133225 0.000162234 0.00017057 0.000174149 0.000167541);
    }
    sideWalls
    {
        type            empty;
    }
    glass1
    {
        type            nutkWallFunction;
        Cmu             0.09;
        kappa           0.41;
        E               9.8;
        value           nonuniform List<scalar> 9(8.99987e-05 0.000141105 0.00018579 0.00022962 0.000272004 0.000313001 0.000354173 0.000365653 0.000359962);
    }
    glass2
    {
        type            nutkWallFunction;
        Cmu             0.09;
        kappa           0.41;
        E               9.8;
        value           nonuniform List<scalar> 2(0.000218671 0.000201071);
    }
    sun
    {
        type            nutkWallFunction;
        Cmu             0.09;
        kappa           0.41;
        E               9.8;
        value           nonuniform List<scalar> 
14
(
9.00198e-05
9.31294e-05
9.06951e-05
9.39176e-05
9.67906e-05
9.92731e-05
0.000101448
0.000103412
0.000105269
0.000107149
0.000108768
0.000110015
0.000110879
0.000111501
)
;
    }
    heatsource1
    {
        type            nutkWallFunction;
        Cmu             0.09;
        kappa           0.41;
        E               9.8;
        value           nonuniform List<scalar> 3(9.50572e-05 0.000110977 0.000124863);
    }
    heatsource2
    {
        type            nutkWallFunction;
        Cmu             0.09;
        kappa           0.41;
        E               9.8;
        value           nonuniform List<scalar> 4(0.000117795 0.000106866 0.000106866 0.000134403);
    }
    Table_master
    {
        type            nutkWallFunction;
        Cmu             0.09;
        kappa           0.41;
        E               9.8;
        value           nonuniform List<scalar> 9(9.62578e-05 8.13459e-05 7.126e-05 6.41343e-05 5.8849e-05 5.47538e-05 5.14786e-05 4.88359e-05 4.68433e-05);
    }
    Table_slave
    {
        type            nutkWallFunction;
        Cmu             0.09;
        kappa           0.41;
        E               9.8;
        value           nonuniform List<scalar> 9(9.99493e-05 9.43611e-05 9.26757e-05 9.19756e-05 9.10012e-05 8.89074e-05 8.51016e-05 8.10691e-05 7.63107e-05);
    }
    inlet
    {
        type            calculated;
        value           uniform 0.000167705;
    }
    outlet
    {
        type            calculated;
        value           nonuniform List<scalar> 2(0.0022933 0.00233382);
    }
}


// ************************************************************************* //
