/*--------------------------------*- C++ -*----------------------------------*\
  =========                 |
  \\      /  F ield         | OpenFOAM: The Open Source CFD Toolbox
   \\    /   O peration     | Website:  https://openfoam.org
    \\  /    A nd           | Version:  6
     \\/     M anipulation  |
\*---------------------------------------------------------------------------*/
FoamFile
{
    version     2.0;
    format      ascii;
    class       surfaceScalarField;
    location    "100";
    object      phi;
}
// * * * * * * * * * * * * * * * * * * * * * * * * * * * * * * * * * * * * * //

dimensions      [1 0 -1 0 0 0 0];

internalField   nonuniform List<scalar> 
852
(
-0.00280221
0.00287765
-0.00318827
0.000386164
-0.00372215
0.000533978
-0.00426224
0.000540194
-0.00474896
0.000486818
-0.00515358
0.000404719
-0.00545316
0.000299683
-0.00562401
0.000170948
-0.00563991
1.60002e-05
-0.00546956
-0.00017025
-0.00508443
-0.000385037
-0.00446542
-0.000618907
-0.0035701
-0.000895223
-0.00221356
-0.00135644
-0.00220931
0.000778688
-0.000773768
0.00120169
-0.000422928
0.00139328
-0.000191516
0.00154236
-0.000148995
0.00169135
-0.000148906
0.00180607
-0.000114634
0.00181945
-1.32936e-05
0.00177091
4.86402e-05
0.00170432
6.66881e-05
0.00163424
7.0196e-05
0.00156399
7.03728e-05
0.00149544
6.86831e-05
0.00142876
6.68207e-05
0.00135917
6.97335e-05
0.00126958
8.97318e-05
0.0011332
0.000136514
0.000966253
0.000167082
0.000847135
0.00011924
0.000855839
-0.0020575
0.00513363
-0.00279457
0.00112334
-0.0035016
0.00124111
-0.00409881
0.0011375
-0.00461405
0.00100216
-0.00504116
0.000831931
-0.00536452
0.000623142
-0.00556438
0.00037091
-0.00561922
7.09503e-05
-0.00551117
-0.000278196
-0.00522329
-0.000672816
-0.00473798
-0.00110411
-0.00404893
-0.00158418
-0.00328165
-0.00212362
-0.00299044
-0.00250043
-0.000827764
-0.00216263
-0.000827731
0.000523804
-0.00128482
0.000680178
-0.00057923
0.000822667
-0.000333931
0.0010015
-0.000327756
0.0011952
-0.000342524
0.00137133
-0.00029068
0.00140648
-4.83529e-05
0.00140868
4.65344e-05
0.00141054
6.49301e-05
0.00141324
6.76125e-05
0.00141619
6.75368e-05
0.00141935
6.56497e-05
0.00142206
6.424e-05
0.00142159
7.03391e-05
0.00139002
0.00012143
0.00123278
0.00029389
0.000972942
0.000427052
0.0006839
0.000408399
0.00156044
-0.00153484
0.00696528
-0.00240149
0.0019901
-0.00313533
0.00197505
-0.00372064
0.00172292
-0.00422938
0.00151101
-0.00466079
0.00126344
-0.00500144
0.000963901
-0.00523325
0.000602827
-0.00533731
0.000175116
-0.00529828
-0.000317115
-0.00510855
-0.000862445
-0.00477555
-0.00143701
-0.00434485
-0.00201477
-0.00392611
-0.00254226
-0.00353906
-0.00288738
-0.00263903
-0.00306257
-0.00346667
-0.000481043
-0.000784996
-0.000214105
-0.000846096
0.000147185
-0.000695144
0.000447673
-0.000628167
0.000705476
-0.000600247
0.00103867
-0.000623793
0.000990559
0.00103734
0.00110252
0.0011704
0.0012382
0.00130413
0.00136864
0.00143927
0.00156098
0.00127864
0.000576358
0.000939611
0.000766211
0.000588459
0.000759667
0.00217897
-0.00115643
0.00849804
-0.00204379
0.00287756
-0.00265008
0.00258145
-0.00314901
0.00222196
-0.00360195
0.00196406
-0.00400039
0.001662
-0.00433075
0.00129437
-0.0045758
0.00084799
-0.00471471
0.000314128
-0.00472884
-0.00030287
-0.00462008
-0.0009711
-0.00442436
-0.00163262
-0.00420988
-0.00222916
-0.00404607
-0.00270596
-0.0039116
-0.00302175
-0.00380439
-0.00316968
-0.00448073
-0.00279025
-0.00255143
-0.00190953
-0.00158273
-0.00175362
-0.000862243
-0.00156651
-0.000350543
-0.00120677
1.52731e-05
-0.000993905
0.000261534
-0.00084643
0.000336625
-0.000698806
0.000791983
-0.000455436
0.00117123
-0.000379323
0.00151724
-0.00034609
0.00182993
-0.000312754
0.00208777
-0.000257917
0.00224991
-0.000162203
0.00226107
-1.12322e-05
0.00207238
0.000188627
0.00162623
0.000446092
0.00134897
0.00085373
0.000848825
0.00126648
7.04729e-05
0.00153814
0.00228882
-0.000853243
0.00979347
-0.00170682
0.00373125
-0.00205883
0.00293357
-0.00242346
0.0025867
-0.00277605
0.00231676
-0.00309231
0.00197836
-0.00336074
0.00156292
-0.00356917
0.00105653
-0.00369858
0.000443653
-0.00372195
-0.000279386
-0.00364043
-0.00105251
-0.0035064
-0.00176654
-0.00338017
-0.00235527
-0.00329641
-0.00278961
-0.00325341
-0.00306464
-0.00327203
-0.00315095
-0.00313673
-0.00292546
-0.00242415
-0.00262201
-0.00167029
-0.0025074
-0.000982868
-0.00225385
-0.000534659
-0.0016549
-0.000208367
-0.00132012
3.87338e-05
-0.00109346
0.000256719
-0.000916716
0.000563523
-0.000762165
0.000864238
-0.000679962
0.00115172
-0.000633495
0.00142547
-0.000586425
0.00167245
-0.000504815
0.00186247
-0.000352138
0.00194858
-9.72553e-05
0.00189308
0.000244217
0.00171042
0.000628844
0.00148347
0.00108079
0.00118026
0.0015698
0.000543159
0.00217535
0.000228726
0.00260336
-0.00123259
0.00146118
-0.00174848
0.000515757
-0.0016767
-0.000735468
0.0110271
-0.00148605
0.00448194
-0.00138565
0.00283328
-0.00157658
0.00277774
-0.00181736
0.00255766
-0.00201884
0.00217995
-0.00217709
0.00172129
-0.00229556
0.00117511
-0.00236688
0.000515087
-0.0023558
-0.000290355
-0.00227151
-0.00113669
-0.00218075
-0.0018572
-0.0021292
-0.00240671
-0.00213628
-0.00278242
-0.00220183
-0.00299897
-0.00229217
-0.0030605
-0.00223212
-0.00298539
-0.00192621
-0.00292781
-0.00143654
-0.00299698
-0.000882584
-0.00280773
-0.00056468
-0.00197273
-0.000330104
-0.00155462
-0.000146198
-0.00127729
2.89004e-05
-0.00109174
0.000229534
-0.000962725
0.000439334
-0.000889687
0.000654486
-0.00084857
0.000877088
-0.000808949
0.00110582
-0.000733466
0.00132847
-0.000574703
0.00151244
-0.000281142
0.00160645
0.000150303
0.00162177
0.000613617
0.00162232
0.00108033
0.00167816
0.00151407
0.00182223
0.00203139
0.0023181
0.0021076
0.00263171
0.00114766
0.00221563
0.000931924
0.000623329
-0.00105315
0.0126267
-0.00120254
0.00463144
-0.000450101
0.00208095
-0.00049097
0.00281872
-0.000706317
0.00277312
-0.000823722
0.00229747
-0.000846512
0.0017442
-0.000813477
0.00114219
-0.000733217
0.000434941
-0.000628087
-0.000395376
-0.000537897
-0.00122677
-0.000512987
-0.001882
-0.000569421
-0.00235017
-0.000703585
-0.00264814
-0.000899096
-0.00280334
-0.00111362
-0.00284586
-0.00126308
-0.00283581
-0.00127722
-0.00291356
-0.00106995
-0.00320415
-0.000673053
-0.00320455
-0.000518485
-0.00212722
-0.000411147
-0.00166189
-0.000338669
-0.0013497
-0.000273148
-0.00115719
-0.000193322
-0.00104248
-0.000101101
-0.000981835
5.21441e-06
-0.00095481
0.000132057
-0.000935713
0.000289805
-0.000891134
0.00049282
-0.000777635
0.000748563
-0.000536799
0.00100451
-0.000105552
0.00123075
0.000387462
0.00146583
0.000845349
0.00179629
0.00118371
0.00233696
0.00149083
0.00314815
0.00129652
0.00383719
0.000458712
0.00388114
0.000888076
0.00458989
0.00232651
0.0109066
0.00272933
0.00422872
0.00231088
0.00249949
0.00173441
0.0033953
0.00122828
0.00327936
0.00097066
0.0025552
0.000958929
0.00175604
0.0010897
0.00101153
0.00132808
0.000196666
0.00154554
-0.000612722
0.00158366
-0.00126479
0.00146688
-0.00176511
0.0012329
-0.00211608
0.000914014
-0.00232914
0.000539356
-0.00242857
0.000141995
-0.00244838
-0.000236475
-0.00245722
-0.000547026
-0.00260289
-0.000622115
-0.00312895
-0.000386828
-0.00343976
-0.000420019
-0.00209395
-0.000469545
-0.00161229
-0.000539354
-0.00127982
-0.000608479
-0.001088
-0.000665674
-0.000985214
-0.000716126
-0.000931312
-0.000762811
-0.00090805
-0.000800273
-0.000898174
-0.000814526
-0.000876801
-0.000778943
-0.000813136
-0.000644131
-0.000671526
-0.000335776
-0.00041382
4.01231e-05
1.16514e-05
0.000401981
0.000483583
0.000770203
0.000815579
0.00118952
0.00107161
0.00150475
0.000981394
0.00141882
0.000544736
0.00044151
0.00186547
0.00544469
0.0115838
0.0158163
0.0123564
0.00595948
0.00983329
0.00591851
0.00786622
0.00524653
0.0064926
0.00392892
0.00566186
0.00258688
0.0052187
0.0014548
0.00488657
0.000528894
0.00451594
-0.000241986
0.00410301
-0.000851759
0.00363553
-0.00129751
0.00311162
-0.00159206
0.00254381
-0.00176123
0.001952
-0.00183665
0.00135614
-0.0018524
0.000762519
-0.00186347
0.000196937
-0.00203718
-0.000111385
-0.00282051
-2.87008e-06
-0.00354819
-0.000314836
-0.00178191
-0.000523113
-0.00140394
-0.000741332
-0.00106153
-0.000949726
-0.000879539
-0.00113837
-0.000796505
-0.00133145
-0.000738155
-0.00155074
-0.000688691
-0.00180695
-0.000641888
-0.00210629
-0.000577386
-0.00245402
-0.000465327
-0.00285279
-0.000272674
-0.00331165
4.51235e-05
-0.00380029
0.000500368
-0.00442046
0.00110384
-0.00540856
0.00180375
-0.00681739
0.00248052
-0.00873805
0.00290214
-0.0109231
0.00272983
-0.0100041
0.000946586
-0.00409943
0.00898096
0.0076129
0.00753238
0.00736714
0.0071246
0.00565437
0.00695632
0.00409729
0.00685155
0.00269174
0.00676504
0.00154141
0.00661256
0.00068147
0.0063052
6.54721e-05
0.00582245
-0.000368918
0.00521664
-0.0006916
0.00453747
-0.000912795
0.00382583
-0.00104948
0.00310996
-0.00112067
0.00239917
-0.0011415
0.00166934
-0.00113353
0.000919194
-0.00128691
0.000456723
-0.00235793
0.000433473
-0.00352487
-0.000422605
-0.000925765
-0.000664611
-0.00116187
-0.000990995
-0.000735089
-0.00129238
-0.000578091
-0.00153196
-0.000556859
-0.00176522
-0.000504826
-0.00203086
-0.000422988
-0.00234201
-0.000330666
-0.00269143
-0.000227895
-0.00304736
-0.000109319
-0.00334133
2.13698e-05
-0.00355625
0.00026012
-0.00371846
0.000662655
-0.00386078
0.00124624
-0.004014
0.00195705
-0.00411879
0.00258538
-0.00401018
0.0027936
-0.003416
0.00213572
-0.00183546
-0.000633884
-0.00582401
-0.000589381
0.00825063
0.00187622
0.00490158
0.00343941
0.00409125
0.00465701
0.00287977
0.00557543
0.0017734
0.00610525
0.00101168
0.00628725
0.000499558
0.0061935
0.000159314
0.00591824
-9.35675e-05
0.00550991
-0.000283169
0.00500979
-0.000412586
0.00445468
-0.000494271
0.00387104
-0.000536924
0.00327357
-0.000543933
0.0026566
-0.000516455
0.00198291
-0.000613112
0.00118967
-0.00156458
0.000260804
-0.00259592
-0.000764821
9.99219e-05
-0.00113043
-0.0007962
-0.00148105
-0.00038441
-0.00176964
-0.000289436
-0.00199673
-0.000329713
-0.00218547
-0.000316022
-0.0023467
-0.00026169
-0.00248574
-0.000191562
-0.0026062
-0.000107372
-0.00271164
-3.8049e-06
-0.00278522
9.50171e-05
-0.00275358
0.00022855
-0.00256391
0.000473064
-0.0021744
0.000856804
-0.00161228
0.00139499
-0.000871845
0.00184502
0.000289431
0.00163239
0.00159617
0.000829045
0.00172223
-0.000759873
-0.00398076
-0.0141123
-0.017624
-0.00933036
-0.00439589
-0.000273774
0.00263697
0.00444232
0.00548719
0.00602131
0.00621666
0.00616061
0.00591637
0.00554416
0.00509173
0.00459818
0.00409917
0.00362915
0.00306398
0.00154896
-0.000997481
-0.000851706
-0.00160252
-0.00194236
-0.00218753
-0.00247304
-0.00274487
-0.00296235
-0.00310971
-0.00317297
-0.003133
-0.00299501
-0.00272456
-0.00221097
-0.0013152
0.000117068
0.00199719
0.00366393
0.00452783
0.00380473
)
;

boundaryField
{
    floor
    {
        type            calculated;
        value           nonuniform List<scalar> 
29
(
0
0
0
0
0
0
0
0
0
0
0
0
0
0
0
0
0
0
0
0
-8.58993e-06
-2.05972e-05
-2.99609e-05
-3.92746e-05
-4.15096e-06
-4.8404e-06
-1.26839e-05
-1.87057e-05
-1.96879e-05
)
;
    }
    ceiling
    {
        type            calculated;
        value           nonuniform List<scalar> 
43
(
-4.42656e-05
-4.36695e-05
-4.30009e-05
-3.2837e-05
-3.07943e-05
-3.08968e-05
-3.18695e-05
-3.30993e-05
-3.4479e-05
-3.59492e-05
-3.74244e-05
-3.8846e-05
-4.02803e-05
-4.17552e-05
-4.3276e-05
-4.48201e-05
-4.63394e-05
-4.78355e-05
-4.94638e-05
-4.94164e-05
-4.57712e-05
-4.53313e-05
-4.45158e-05
-4.42052e-05
-4.41472e-05
-4.41328e-05
-4.41393e-05
-4.41419e-05
-4.40486e-05
-4.37087e-05
-4.29121e-05
-4.18373e-05
-4.04585e-05
-3.88891e-05
-3.72084e-05
-3.50353e-05
-3.42809e-05
-3.47898e-05
-3.67062e-05
-3.84936e-05
-2.03792e-06
-3.72456e-06
-4.83265e-05
)
;
    }
    sWall
    {
        type            calculated;
        value           uniform -0.000233373;
    }
    nWall
    {
        type            calculated;
        value           nonuniform List<scalar> 6(-7.19077e-05 -8.43154e-05 -8.53322e-05 -0.00011083 -0.000120958 -0.00013747);
    }
    sideWalls
    {
        type            empty;
        value           nonuniform 0();
    }
    glass1
    {
        type            calculated;
        value           nonuniform List<scalar> 9(-7.53406e-05 -0.000198377 -0.000296716 -0.000376233 -0.000442086 -0.000498099 -0.000546315 -0.000606367 -0.000674987);
    }
    glass2
    {
        type            calculated;
        value           nonuniform List<scalar> 2(-0.000413207 -0.00045992);
    }
    sun
    {
        type            calculated;
        value           uniform 0;
    }
    heatsource1
    {
        type            calculated;
        value           nonuniform List<scalar> 3(2.08186e-07 2.07979e-07 2.0799e-07);
    }
    heatsource2
    {
        type            calculated;
        value           nonuniform List<scalar> 4(5.17933e-08 5.20543e-08 0 0);
    }
    Table_master
    {
        type            calculated;
        value           nonuniform List<scalar> 9(-1.56107e-07 -1.56197e-07 -1.56215e-07 -1.56228e-07 -1.56238e-07 -1.56247e-07 -1.56255e-07 -1.5626e-07 -1.56244e-07);
    }
    Table_slave
    {
        type            calculated;
        value           nonuniform List<scalar> 9(1.56127e-07 1.56065e-07 1.5596e-07 1.55864e-07 1.55788e-07 1.55747e-07 1.55761e-07 1.55783e-07 1.55874e-07);
    }
    inlet
    {
        type            calculated;
        value           uniform -0.0106344;
    }
    outlet
    {
        type            calculated;
        value           nonuniform List<scalar> 2(0.01439 0.00355541);
    }
}


// ************************************************************************* //
