// -*- C++ -*-
// File generated by PyFoam - sorry for the ugliness

FoamFile
{
 version 2.0;
 format ascii;
 class volScalarField;
 location "100";
 object T;
}

dimensions [ 0 0 0 1 0 0 0 ];

internalField nonuniform List<scalar> 459
(
  300.94
  300.55
  300.542
  300.545
  300.548
  300.55
  300.552
  300.554
  300.555
  300.556
  300.557
  300.557
  300.556
  300.554
  300.554
  300.535
  300.513
  300.501
  300.489
  300.477
  300.467
  300.458
  300.449
  300.438
  300.425
  300.41
  300.393
  300.374
  300.353
  300.331
  300.309
  300.286
  300.263
  300.273
  301.211
  300.565
  300.537
  300.543
  300.549
  300.556
  300.561
  300.566
  300.571
  300.574
  300.576
  300.574
  300.568
  300.559
  300.547
  300.534
  300.517
  300.515
  300.487
  300.468
  300.454
  300.442
  300.43
  300.416
  300.401
  300.385
  300.367
  300.347
  300.326
  300.304
  300.281
  300.258
  300.238
  300.217
  300.197
  300.24
  301.476
  300.606
  300.548
  300.558
  300.572
  300.584
  300.596
  300.606
  300.615
  300.62
  300.622
  300.617
  300.605
  300.588
  300.568
  300.551
  300.539
  300.512
  300.488
  300.473
  300.459
  300.447
  300.435
  300.414
  300.389
  300.365
  300.341
  300.317
  300.293
  300.268
  300.245
  300.223
  300.208
  300.191
  300.175
  300.224
  301.723
  300.668
  300.565
  300.576
  300.597
  300.618
  300.637
  300.655
  300.669
  300.678
  300.68
  300.672
  300.653
  300.626
  300.596
  300.568
  300.545
  300.534
  300.519
  300.508
  300.493
  300.478
  300.464
  300.453
  300.441
  300.432
  300.425
  300.418
  300.412
  300.404
  300.394
  300.383
  300.369
  300.31
  300.248
  300.197
  300.227
  301.952
  300.749
  300.586
  300.591
  300.617
  300.646
  300.675
  300.702
  300.725
  300.741
  300.748
  300.739
  300.715
  300.679
  300.638
  300.599
  300.568
  300.55
  300.539
  300.529
  300.514
  300.499
  300.485
  300.473
  300.464
  300.457
  300.45
  300.444
  300.437
  300.428
  300.416
  300.401
  300.382
  300.344
  300.287
  300.225
  300.218
  300.298
  300.34
  300.359
  302.15
  300.853
  300.627
  300.603
  300.629
  300.662
  300.698
  300.734
  300.768
  300.797
  300.812
  300.807
  300.78
  300.737
  300.686
  300.636
  300.594
  300.567
  300.554
  300.547
  300.532
  300.518
  300.504
  300.493
  300.484
  300.478
  300.472
  300.466
  300.459
  300.449
  300.435
  300.416
  300.393
  300.361
  300.314
  300.256
  300.228
  300.249
  300.26
  300.307
  302.295
  301.034
  300.773
  300.658
  300.648
  300.672
  300.705
  300.742
  300.784
  300.831
  300.863
  300.862
  300.834
  300.788
  300.732
  300.674
  300.621
  300.583
  300.565
  300.561
  300.546
  300.533
  300.521
  300.511
  300.504
  300.498
  300.494
  300.489
  300.482
  300.473
  300.457
  300.433
  300.405
  300.374
  300.335
  300.289
  300.259
  300.259
  300.267
  300.304
  302.559
  301.611
  301.311
  301.028
  300.852
  300.777
  300.764
  300.782
  300.814
  300.872
  300.901
  300.896
  300.865
  300.818
  300.764
  300.706
  300.646
  300.598
  300.572
  300.572
  300.558
  300.548
  300.537
  300.528
  300.523
  300.519
  300.515
  300.512
  300.508
  300.5
  300.488
  300.468
  300.433
  300.404
  300.376
  300.349
  300.344
  300.377
  300.411
  300.639
  302.927
  302.528
  302.237
  301.882
  301.563
  301.328
  301.174
  301.085
  301.043
  301.009
  300.965
  300.916
  300.865
  300.813
  300.762
  300.711
  300.66
  300.612
  300.577
  300.581
  300.569
  300.563
  300.553
  300.546
  300.543
  300.54
  300.539
  300.539
  300.538
  300.538
  300.538
  300.541
  300.55
  300.563
  300.594
  300.642
  300.705
  300.764
  300.802
  300.896
  297.819
  299.489
  300.356
  300.703
  300.827
  300.866
  300.871
  300.863
  300.844
  300.817
  300.785
  300.751
  300.716
  300.68
  300.645
  300.61
  300.581
  300.587
  300.58
  300.581
  300.572
  300.567
  300.565
  300.565
  300.566
  300.569
  300.574
  300.58
  300.589
  300.598
  300.609
  300.627
  300.655
  300.692
  300.734
  300.766
  300.78
  300.796
  298.026
  299.471
  300.125
  300.438
  300.581
  300.643
  300.666
  300.669
  300.667
  300.661
  300.653
  300.643
  300.631
  300.619
  300.605
  300.59
  300.579
  300.594
  300.592
  300.604
  300.596
  300.592
  300.592
  300.592
  300.593
  300.595
  300.598
  300.603
  300.611
  300.619
  300.629
  300.643
  300.664
  300.692
  300.723
  300.745
  300.737
  300.773
  298.979
  298.947
  298.945
  299.758
  300.133
  300.417
  300.487
  300.521
  300.539
  300.547
  300.552
  300.556
  300.561
  300.564
  300.568
  300.571
  300.573
  300.576
  300.579
  300.608
  300.636
  300.646
  300.644
  300.643
  300.644
  300.645
  300.646
  300.647
  300.647
  300.648
  300.649
  300.65
  300.653
  300.658
  300.667
  300.69
  300.706
  300.715
  300.719
  300.76
)
;

boundaryField
{
  floor
  {
    type wallHeatTransfer;
    Tinf uniform 305.2;
    alphaWall uniform 0.24;
    value nonuniform List<scalar> 29
(
  301.101
  301.172
  301.171
  301.183
  301.186
  301.186
  301.193
  301.214
  301.236
  301.258
  301.28
  301.3
  301.319
  301.336
  301.351
  301.365
  301.379
  301.391
  301.363
  301.405
  301.405
  301.144
  301.014
  300.967
  301.101
  301.172
  301.072
  301.005
  300.972
)
;
  }
  ceiling
  {
    type wallHeatTransfer;
    Tinf uniform 303.2;
    alphaWall uniform 0.24;
    value nonuniform List<scalar> 43
(
  299.222
  299.188
  299.183
  299.937
  300.299
  300.584
  300.659
  300.701
  300.726
  300.743
  300.756
  300.768
  300.78
  300.792
  300.803
  300.815
  300.826
  300.836
  300.848
  300.876
  300.883
  300.892
  300.885
  300.883
  300.883
  300.884
  300.885
  300.886
  300.887
  300.885
  300.882
  300.877
  300.872
  300.868
  300.868
  300.879
  300.891
  300.904
  300.918
  300.968
  302.939
  302.553
  298.328
)
;
  }
  sWall
  {
    type wallHeatTransfer;
    Tinf uniform 315.2;
    alphaWall uniform 0.36;
    value uniform 300.346;
  }
  nWall
  {
    type wallHeatTransfer;
    Tinf uniform 307.2;
    alphaWall uniform 0.36;
    value nonuniform List<scalar> 6
(
  301.414
  301.32
  301.176
  301.575
  301.542
  301.554
)
;
  }
  sideWalls
  {
    type empty;
  }
  glass1
  {
    type wallHeatTransfer;
    Tinf uniform 315.2;
    alphaWall uniform 4.3;
    value nonuniform List<scalar> 9
(
  311.597
  310.552
  309.857
  309.315
  308.894
  308.556
  308.251
  308.298
  308.547
)
;
  }
  glass2
  {
    type wallHeatTransfer;
    Tinf uniform 307.2;
    alphaWall uniform 4.3;
    value nonuniform List<scalar> 2
(
  304.384
  304.614
)
;
  }
  sun
  {
    type wallHeatTransfer;
    Tinf uniform 305.2;
    alphaWall uniform 0.24;
    value nonuniform List<scalar> 14
(
  301.529
  301.178
  301.183
  301.169
  301.158
  301.149
  301.141
  301.134
  301.128
  301.122
  301.116
  301.111
  301.107
  301.103
)
;
  }
  heatsource1
  {
    type fixedGradient;
    gradient uniform 0;
  }
  heatsource2
  {
    type fixedGradient;
    gradient uniform 0;
  }
  Table_master
  {
    type zeroGradient;
  }
  Table_slave
  {
    type zeroGradient;
  }
  inlet
  {
    type fixedValue;
    value uniform 291.15;
  }
  outlet
  {
    type zeroGradient;
  }
} 	// ************************************************************************* //

