// -*- C++ -*-
// File generated by PyFoam - sorry for the ugliness

FoamFile
{
 version 2.0;
 format ascii;
 class volVectorField;
 location "100";
 object U;
}

dimensions [ 0 1 -1 0 0 0 0 ];

internalField nonuniform List<vector> 459
(
  (0.0953104 0.0772816 0)
  (-0.153496 0.00746449 0)
  (-0.147111 0.0114758 0)
  (-0.171255 0.010718 0)
  (-0.193453 0.00840124 0)
  (-0.212698 0.00537348 0)
  (-0.227924 0.0018022 0)
  (-0.238185 -0.00233849 0)
  (-0.242468 -0.00715603 0)
  (-0.239503 -0.0128439 0)
  (-0.22743 -0.0199632 0)
  (-0.203442 -0.0290237 0)
  (-0.166256 -0.0417816 0)
  (-0.12612 -0.0618254 0)
  (-0.11872 -0.0892364 0)
  (0.0917352 -0.0365547 0)
  (0.0385009 -0.0221572 0)
  (0.0485028 -0.0129012 0)
  (0.0619794 -0.00862163 0)
  (0.0698179 -0.00676036 0)
  (0.0750551 -0.00503925 0)
  (0.0781376 -0.00240768 0)
  (0.0774482 -0.000650892 0)
  (0.0745935 0.000159316 0)
  (0.0712906 0.00053802 0)
  (0.0681575 0.000761864 0)
  (0.0651927 0.000891868 0)
  (0.0623229 0.000967214 0)
  (0.0594511 0.00110813 0)
  (0.0562096 0.00164614 0)
  (0.0516994 0.00297438 0)
  (0.0452005 0.00352384 0)
  (0.0479323 0.0022169 0)
  (-0.0368215 0.0234364 0)
  (0.315599 0.167607 0)
  (-0.175486 0.0317363 0)
  (-0.13238 0.0383056 0)
  (-0.163247 0.0367211 0)
  (-0.187057 0.0331423 0)
  (-0.207363 0.0282546 0)
  (-0.223549 0.0220727 0)
  (-0.234914 0.0144103 0)
  (-0.240574 0.004998 0)
  (-0.239409 -0.00648464 0)
  (-0.230508 -0.0197485 0)
  (-0.212789 -0.034677 0)
  (-0.186977 -0.0525067 0)
  (-0.158249 -0.0754238 0)
  (-0.131263 -0.0966365 0)
  (-0.0928948 -0.0851721 0)
  (-0.048098 -0.0405232 0)
  (0.096619 -0.0417266 0)
  (0.0193008 -0.01886 0)
  (0.0271743 -0.00845642 0)
  (0.038647 -0.00762389 0)
  (0.0471943 -0.00854645 0)
  (0.0546488 -0.00703678 0)
  (0.060316 0.000447416 0)
  (0.0611298 0.00434939 0)
  (0.0604135 0.00545536 0)
  (0.0601204 0.00554795 0)
  (0.0602429 0.00538676 0)
  (0.0604367 0.00515556 0)
  (0.0605885 0.00496823 0)
  (0.06068 0.00508559 0)
  (0.0602024 0.00628751 0)
  (0.0568451 0.0109173 0)
  (0.047863 0.0130433 0)
  (0.0569924 0.0111251 0)
  (-0.0969026 0.0505107 0)
  (0.504964 0.25693 0)
  (-0.225259 0.0656502 0)
  (-0.108318 0.0682347 0)
  (-0.1474 0.0607366 0)
  (-0.170626 0.0530153 0)
  (-0.190907 0.0436729 0)
  (-0.207551 0.032316 0)
  (-0.219996 0.0187017 0)
  (-0.227398 0.00272361 0)
  (-0.228571 -0.0154552 0)
  (-0.22302 -0.0357725 0)
  (-0.211162 -0.0576264 0)
  (-0.194636 -0.0804278 0)
  (-0.176133 -0.102915 0)
  (-0.155336 -0.119353 0)
  (-0.132857 -0.123102 0)
  (-0.138583 -0.129272 0)
  (0.0442214 -0.0354409 0)
  (-0.0187215 -0.0268974 0)
  (-0.00160731 -0.0198672 0)
  (0.0134135 -0.0193564 0)
  (0.0254757 -0.0197893 0)
  (0.0351244 -0.0197657 0)
  (0.0456392 -0.0104503 0)
  (0.0458028 -0.00470152 0)
  (0.0457345 -0.00237373 0)
  (0.0480258 -0.00151014 0)
  (0.0511773 -0.00117535 0)
  (0.0542114 -0.00108413 0)
  (0.0570165 -0.00108021 0)
  (0.0599772 -0.000886731 0)
  (0.0639378 0.00146796 0)
  (0.062363 0.0171536 0)
  (0.0473505 0.02469 0)
  (0.0710472 0.0245332 0)
  (-0.14587 0.0765334 0)
  (0.662937 0.332332 0)
  (-0.281485 0.104384 0)
  (-0.0763358 0.0975667 0)
  (-0.125042 0.0845053 0)
  (-0.144859 0.0743279 0)
  (-0.163231 0.0624348 0)
  (-0.178972 0.0479897 0)
  (-0.191528 0.0305117 0)
  (-0.200021 0.00970208 0)
  (-0.203097 -0.0142761 0)
  (-0.200097 -0.0404567 0)
  (-0.192918 -0.067125 0)
  (-0.183639 -0.0922428 0)
  (-0.174734 -0.113385 0)
  (-0.168054 -0.127004 0)
  (-0.168671 -0.129837 0)
  (-0.179507 -0.110865 0)
  (-0.154454 -0.0363953 0)
  (-0.0860811 -0.0537221 0)
  (-0.0525713 -0.0505639 0)
  (-0.0246971 -0.0408259 0)
  (-0.00643819 -0.034947 0)
  (0.00677951 -0.0310291 0)
  (0.0134957 -0.0277481 0)
  (0.0228672 -0.018751 0)
  (0.0412174 -0.0156508 0)
  (0.0574205 -0.0138225 0)
  (0.0715581 -0.0122887 0)
  (0.0837463 -0.010386 0)
  (0.0929817 -0.0076201 0)
  (0.0975175 -0.00373553 0)
  (0.0944475 0.00160076 0)
  (0.0818302 0.00876941 0)
  (0.0641574 0.0286819 0)
  (0.0425028 0.0436222 0)
  (0.0808395 0.0509698 0)
  (-0.227631 0.097903 0)
  (0.792707 0.394784 0)
  (-0.333944 0.143862 0)
  (-0.039588 0.119863 0)
  (-0.0972647 0.103442 0)
  (-0.111673 0.0919444 0)
  (-0.126054 0.0781283 0)
  (-0.138727 0.0611323 0)
  (-0.149249 0.040376 0)
  (-0.156869 0.0154534 0)
  (-0.159994 -0.0133212 0)
  (-0.157323 -0.0440219 0)
  (-0.152013 -0.0734833 0)
  (-0.14605 -0.0989113 0)
  (-0.141426 -0.118598 0)
  (-0.139523 -0.131705 0)
  (-0.140873 -0.137501 0)
  (-0.138921 -0.129973 0)
  (-0.120593 -0.101244 0)
  (-0.0875102 -0.0935883 0)
  (-0.0562485 -0.0829031 0)
  (-0.0312007 -0.0624509 0)
  (-0.015445 -0.0504418 0)
  (-0.00323938 -0.04219 0)
  (0.00620178 -0.0352281 0)
  (0.0172819 -0.0274913 0)
  (0.0303738 -0.0236547 0)
  (0.0430099 -0.0214962 0)
  (0.0549729 -0.0193976 0)
  (0.0660932 -0.0160547 0)
  (0.0756108 -0.01021 0)
  (0.082174 -0.000958937 0)
  (0.0836046 0.0108447 0)
  (0.0787936 0.0246451 0)
  (0.0695111 0.0431021 0)
  (0.0509727 0.0617283 0)
  (0.0880039 0.0807866 0)
  (-0.068127 0.10791 0)
  (0.0612587 0.016862 0)
  (-0.0759343 -0.0373917 0)
  (-0.325887 -0.065003 0)
  (0.884203 0.450374 0)
  (-0.379295 0.17852 0)
  (-0.00606381 0.128313 0)
  (-0.0639917 0.116878 0)
  (-0.0732806 0.104871 0)
  (-0.082677 0.08951 0)
  (-0.09046 0.0708141 0)
  (-0.0968182 0.0480095 0)
  (-0.101549 0.0202473 0)
  (-0.102289 -0.0126216 0)
  (-0.0980451 -0.0474176 0)
  (-0.0937345 -0.0784132 0)
  (-0.0906107 -0.102848 0)
  (-0.0898832 -0.120097 0)
  (-0.09216 -0.130468 0)
  (-0.096556 -0.133959 0)
  (-0.0982053 -0.129593 0)
  (-0.0909387 -0.121733 0)
  (-0.0723154 -0.120174 0)
  (-0.0492718 -0.109493 0)
  (-0.0298773 -0.0791043 0)
  (-0.0190771 -0.06266 0)
  (-0.0099809 -0.0516969 0)
  (-0.00269351 -0.0438691 0)
  (0.0054351 -0.0375815 0)
  (0.0142203 -0.034282 0)
  (0.0232321 -0.032435 0)
  (0.0324801 -0.0305491 0)
  (0.0419624 -0.0270527 0)
  (0.0515167 -0.0200752 0)
  (0.0605518 -0.00780023 0)
  (0.0679155 0.00929181 0)
  (0.0702901 0.0279255 0)
  (0.070605 0.0478921 0)
  (0.0653338 0.0679678 0)
  (0.0968537 0.0925407 0)
  (0.0548779 0.103701 0)
  (0.116236 0.067448 0)
  (0.140022 0.0472136 0)
  (-0.145813 -0.00413321 0)
  (0.907909 0.500377 0)
  (-0.403811 0.176499 0)
  (0.0194569 0.0962425 0)
  (-0.0147675 0.127262 0)
  (-0.0267825 0.1179 0)
  (-0.0342586 0.0966485 0)
  (-0.0368987 0.0750963 0)
  (-0.0372707 0.0510541 0)
  (-0.0366181 0.0217544 0)
  (-0.0292139 -0.0150285 0)
  (-0.0221353 -0.0523378 0)
  (-0.0198186 -0.0819799 0)
  (-0.0210593 -0.103487 0)
  (-0.0257495 -0.117562 0)
  (-0.0335216 -0.125323 0)
  (-0.0429952 -0.127805 0)
  (-0.0517611 -0.126852 0)
  (-0.0571597 -0.12832 0)
  (-0.0508311 -0.136133 0)
  (-0.0370476 -0.130806 0)
  (-0.0246121 -0.0899225 0)
  (-0.0202457 -0.0703675 0)
  (-0.0158987 -0.0573742 0)
  (-0.0131824 -0.0490824 0)
  (-0.0100698 -0.0438349 0)
  (-0.00633373 -0.0409946 0)
  (-0.0021757 -0.0396508 0)
  (0.00269751 -0.0385849 0)
  (0.00841333 -0.0362591 0)
  (0.0155325 -0.0306299 0)
  (0.0245028 -0.0190699 0)
  (0.0378604 0.000637828 0)
  (0.0492257 0.0222882 0)
  (0.0585773 0.0424197 0)
  (0.0663123 0.0601917 0)
  (0.0947157 0.0801901 0)
  (0.107244 0.0797075 0)
  (0.14914 0.0460288 0)
  (0.19593 0.0420803 0)
  (-0.0211927 0.110647 0)
  (1.01254 0.521927 0)
  (-0.151442 0.161584 0)
  (0.0831852 0.0424077 0)
  (0.106599 0.0801649 0)
  (0.0671583 0.0949929 0)
  (0.0422459 0.0778628 0)
  (0.0375514 0.0545121 0)
  (0.0412268 0.0305977 0)
  (0.0465178 0.000214263 0)
  (0.0647443 -0.0311018 0)
  (0.0707638 -0.0582724 0)
  (0.0679766 -0.0806203 0)
  (0.0596266 -0.0972097 0)
  (0.047172 -0.107926 0)
  (0.0317557 -0.113502 0)
  (0.0149176 -0.115175 0)
  (-0.0025457 -0.115699 0)
  (-0.0209405 -0.122078 0)
  (-0.0255313 -0.141138 0)
  (-0.0211668 -0.146546 0)
  (-0.0166823 -0.0940324 0)
  (-0.019997 -0.0731919 0)
  (-0.0214371 -0.058787 0)
  (-0.0246389 -0.0500486 0)
  (-0.0272945 -0.045147 0)
  (-0.029447 -0.0425734 0)
  (-0.0314906 -0.0414598 0)
  (-0.0333932 -0.040943 0)
  (-0.0347798 -0.0399176 0)
  (-0.0349322 -0.0371143 0)
  (-0.0327603 -0.0311187 0)
  (-0.0257529 -0.0204009 0)
  (-0.0028112 -0.00340475 0)
  (0.0114005 0.0159267 0)
  (0.0238309 0.0271521 0)
  (0.0456561 0.0364292 0)
  (0.0593856 0.0242953 0)
  (0.0698593 -0.0046488 0)
  (0.141516 0.0709225 0)
  (-0.588937 0.271415 0)
  (1.14645 0.472189 0)
  (0.55915 0.317354 0)
  (0.553636 0.302066 0)
  (0.487623 0.255408 0)
  (0.382426 0.20771 0)
  (0.300141 0.153497 0)
  (0.252583 0.101269 0)
  (0.227901 0.0568859 0)
  (0.216669 0.0187742 0)
  (0.202231 -0.0156548 0)
  (0.18566 -0.0445463 0)
  (0.166734 -0.066566 0)
  (0.145285 -0.08165 0)
  (0.121583 -0.0906697 0)
  (0.0963998 -0.094964 0)
  (0.0707481 -0.0961021 0)
  (0.0451155 -0.0966311 0)
  (0.0160563 -0.102718 0)
  (0.00278684 -0.129533 0)
  (-0.00253021 -0.150244 0)
  (-0.00701526 -0.0858344 0)
  (-0.0198011 -0.0678728 0)
  (-0.0268616 -0.0543903 0)
  (-0.0362367 -0.046679 0)
  (-0.0446321 -0.0426784 0)
  (-0.0524697 -0.0401293 0)
  (-0.0610695 -0.038246 0)
  (-0.0711567 -0.0364371 0)
  (-0.0830407 -0.0336719 0)
  (-0.0968848 -0.0286067 0)
  (-0.112986 -0.0197219 0)
  (-0.131832 -0.00535557 0)
  (-0.152027 0.0148413 0)
  (-0.170894 0.0377397 0)
  (-0.204556 0.0614506 0)
  (-0.255234 0.0826522 0)
  (-0.326623 0.094762 0)
  (-0.403265 0.0943037 0)
  (-0.483392 0.0823525 0)
  (-0.777375 0.0566202 0)
  (0.251168 0.149763 0)
  (0.318448 0.247297 0)
  (0.318932 0.233539 0)
  (0.297947 0.181793 0)
  (0.289755 0.124334 0)
  (0.288665 0.0735646 0)
  (0.286816 0.0317579 0)
  (0.278817 -0.00237819 0)
  (0.26133 -0.0282803 0)
  (0.237388 -0.0461112 0)
  (0.209368 -0.0569925 0)
  (0.179172 -0.0624034 0)
  (0.148304 -0.0638393 0)
  (0.117624 -0.0626414 0)
  (0.0864584 -0.060459 0)
  (0.0515524 -0.0624259 0)
  (0.0359099 -0.0906857 0)
  (0.0151737 -0.129317 0)
  (-0.000938776 -0.0531486 0)
  (-0.0255749 -0.0408233 0)
  (-0.0356316 -0.0312614 0)
  (-0.0489409 -0.028181 0)
  (-0.060421 -0.0276682 0)
  (-0.070184 -0.0275884 0)
  (-0.0805704 -0.0277371 0)
  (-0.0928768 -0.0277907 0)
  (-0.107356 -0.026568 0)
  (-0.123025 -0.0221204 0)
  (-0.137328 -0.0122518 0)
  (-0.147913 0.00450756 0)
  (-0.154775 0.027053 0)
  (-0.159563 0.0555039 0)
  (-0.165524 0.08645 0)
  (-0.174034 0.112347 0)
  (-0.18103 0.119947 0)
  (-0.163502 0.0870747 0)
  (-0.091282 -0.0356662 0)
  (-0.294835 -0.28523 0)
  (0.113913 0.399374 0)
  (0.0406172 0.299205 0)
  (0.108163 0.232101 0)
  (0.166076 0.170887 0)
  (0.21463 0.116096 0)
  (0.249253 0.0765007 0)
  (0.267033 0.0516048 0)
  (0.269582 0.0390212 0)
  (0.261182 0.0323901 0)
  (0.245774 0.0272553 0)
  (0.225809 0.0237789 0)
  (0.20286 0.022138 0)
  (0.178201 0.0224865 0)
  (0.152757 0.0251512 0)
  (0.126417 0.0301553 0)
  (0.0977159 0.0248678 0)
  (0.0799066 -0.0443342 0)
  (0.0238681 -0.118263 0)
  (-0.0160058 0.0470362 0)
  (-0.0422368 0.0111037 0)
  (-0.0567581 0.0414871 0)
  (-0.0697648 0.0518144 0)
  (-0.0808081 0.0523879 0)
  (-0.0895943 0.0566336 0)
  (-0.0969496 0.0636021 0)
  (-0.103304 0.0705923 0)
  (-0.108957 0.075824 0)
  (-0.114166 0.0771628 0)
  (-0.118396 0.0712793 0)
  (-0.11918 0.0655353 0)
  (-0.113444 0.0660211 0)
  (-0.0997771 0.0758891 0)
  (-0.0796224 0.0948867 0)
  (-0.0545746 0.114955 0)
  (-0.0262486 0.124596 0)
  (0.0188132 0.104952 0)
  (0.14336 0.0140707 0)
  (-0.190015 -0.19892 0)
  (-0.554441 -0.598388 0)
  (-0.727363 -0.137743 0)
  (-0.488012 0.280976 0)
  (-0.343913 0.169454 0)
  (-0.128279 0.119686 0)
  (0.0565673 0.0428107 0)
  (0.144696 -0.0080087 0)
  (0.210545 -0.0478117 0)
  (0.248934 -0.0806907 0)
  (0.26532 -0.110006 0)
  (0.267405 -0.135892 0)
  (0.260093 -0.157093 0)
  (0.246301 -0.175499 0)
  (0.228169 -0.192514 0)
  (0.207491 -0.209196 0)
  (0.185832 -0.22624 0)
  (0.164677 -0.24389 0)
  (0.143873 -0.262703 0)
  (0.116986 -0.286503 0)
  (0.00846176 -0.301398 0)
  (-0.0574751 -0.263038 0)
  (-0.0536731 -0.284298 0)
  (-0.0766924 -0.271663 0)
  (-0.0880053 -0.266599 0)
  (-0.0998121 -0.264587 0)
  (-0.112113 -0.262959 0)
  (-0.122703 -0.261209 0)
  (-0.130541 -0.258175 0)
  (-0.135056 -0.2517 0)
  (-0.135846 -0.238854 0)
  (-0.132586 -0.216194 0)
  (-0.123742 -0.18891 0)
  (-0.104808 -0.156689 0)
  (-0.072418 -0.121082 0)
  (-0.0292393 -0.0820286 0)
  (0.0497603 -0.0385485 0)
  (0.113277 -0.0431377 0)
  (0.172807 -0.0791204 0)
  (0.218445 -0.145463 0)
  (-0.0975904 -0.232834 0)
)
;

boundaryField
{
  floor
  {
    type noSlip;
  }
  ceiling
  {
    type noSlip;
  }
  sWall
  {
    type noSlip;
  }
  nWall
  {
    type noSlip;
  }
  sideWalls
  {
    type empty;
  }
  glass1
  {
    type noSlip;
  }
  glass2
  {
    type noSlip;
  }
  sun
  {
    type noSlip;
  }
  heatsource1
  {
    type noSlip;
  }
  heatsource2
  {
    type noSlip;
  }
  Table_master
  {
    type noSlip;
  }
  Table_slave
  {
    type noSlip;
  }
  inlet
  {
    type fixedValue;
    value uniform (0.212132 -0.212132 0);
  }
  outlet
  {
    type zeroGradient;
  }
} 	// ************************************************************************* //

