/*--------------------------------*- C++ -*----------------------------------*\
  =========                 |
  \\      /  F ield         | OpenFOAM: The Open Source CFD Toolbox
   \\    /   O peration     | Website:  https://openfoam.org
    \\  /    A nd           | Version:  6
     \\/     M anipulation  |
\*---------------------------------------------------------------------------*/
FoamFile
{
    version     2.0;
    format      ascii;
    class       volScalarField;
    location    "3700";
    object      alphat;
}
// * * * * * * * * * * * * * * * * * * * * * * * * * * * * * * * * * * * * * //

dimensions      [1 -1 -1 0 0 0 0];

internalField   nonuniform List<scalar> 
778
(
0.00104102
0.00111056
0.00110653
0.00115455
0.00119855
0.00123852
0.00127574
0.00131163
0.00134778
0.0013862
0.00142287
0.00145773
0.00149208
0.00152901
0.00156754
0.000736851
0.00105572
0.00106436
0.00103867
0.000995597
0.000937969
0.000880517
0.000827609
0.000779942
0.000737224
0.000699166
0.00066498
0.000633834
0.000604759
0.000576458
0.000546865
0.000522266
0.000472689
0.0015247
0.00300735
0.00263937
0.00304643
0.00334171
0.00365472
0.00396695
0.00425472
0.00448646
0.00462154
0.00470108
0.0046688
0.00443641
0.00385995
0.00281932
0.00171651
0.0016366
0.00156657
0.00131851
0.00224634
0.00311417
0.0036271
0.00365138
0.00288117
0.00246414
0.00217508
0.00195559
0.00178093
0.001632
0.00150041
0.00137799
0.00125823
0.00115076
0.00105809
0.00119134
0.000599308
0.00193419
0.00419884
0.00311344
0.00445343
0.00497599
0.00541805
0.00581947
0.00617278
0.00647223
0.00670726
0.00693512
0.00717521
0.00739625
0.00752847
0.00744276
0.00681554
0.00498499
0.00192164
0.00166348
0.00355801
0.00496594
0.005633
0.00512394
0.00135225
0.00117596
0.00103989
0.000933377
0.000848583
0.000780129
0.000724297
0.000678894
0.000643501
0.000707364
0.00083196
0.00131646
0.000681788
0.00232915
0.00565843
0.00297909
0.00500702
0.00578067
0.0061943
0.00649825
0.00672302
0.00689082
0.00702705
0.00722093
0.00754886
0.00802766
0.00862997
0.0092356
0.0095346
0.00895408
0.0066802
0.00191374
0.00443126
0.0065911
0.00768921
0.00796135
0.00679804
0.00153936
0.00140029
0.00129265
0.0012031
0.00112675
0.00105817
0.000993494
0.00092927
0.000859927
0.000803302
0.000832366
0.00142424
0.000750773
0.00271843
0.00749044
0.00300556
0.00475941
0.00594895
0.00630153
0.00642917
0.00643365
0.0063694
0.00631269
0.00639385
0.00671236
0.00729713
0.00812539
0.00908594
0.00997079
0.0105323
0.0105263
0.00944703
0.00961145
0.00983079
0.00986149
0.00966164
0.00904455
0.00719896
0.00621928
0.00554816
0.00500294
0.00446796
0.00394963
0.00344248
0.00293589
0.00241535
0.00185551
0.00141629
0.00141305
0.00111835
0.000894733
0.00117108
0.00112704
0.00310137
0.00954052
0.00353832
0.00401323
0.00569947
0.00609076
0.006059
0.00584048
0.0055284
0.00527106
0.00526534
0.00559889
0.00626507
0.0072254
0.00834923
0.00947155
0.0104265
0.0110362
0.0111469
0.0110341
0.0108374
0.0105592
0.0102025
0.00974922
0.00908764
0.00845011
0.00787117
0.00731154
0.00670714
0.0060616
0.00537196
0.00463229
0.00383788
0.00299516
0.00223317
0.00167697
0.00130182
0.00145213
0.00251113
0.00135037
0.00349212
0.0114357
0.00471488
0.00328781
0.00512074
0.00576095
0.00568958
0.00533639
0.00482428
0.00437367
0.00436036
0.00478105
0.00554335
0.00661676
0.00783822
0.00904691
0.0100866
0.0108306
0.0111723
0.0111447
0.0108987
0.0105271
0.0101023
0.009679
0.00926987
0.00889447
0.00854184
0.00816556
0.0077111
0.00716401
0.00651609
0.00576413
0.00491099
0.00397902
0.00306968
0.00222303
0.00163788
0.00145751
0.00254547
0.00158748
0.00382785
0.0128685
0.00642741
0.00313085
0.004056
0.00510652
0.00525305
0.00496301
0.00435746
0.00374504
0.00388338
0.00443954
0.00529182
0.00639797
0.00766672
0.00893221
0.010011
0.0107599
0.0110994
0.0110539
0.0107363
0.0102688
0.00976646
0.00932134
0.00897842
0.00873347
0.00854252
0.00833516
0.00804671
0.00764295
0.00710782
0.0064379
0.00563961
0.00473767
0.00380284
0.00286318
0.00201628
0.00133576
0.00360107
0.00206012
0.00392907
0.0121739
0.0079504
0.00404772
0.00275033
0.00336889
0.00394218
0.00399087
0.00352353
0.00342482
0.00378042
0.00443442
0.00535574
0.00652854
0.00785814
0.00916264
0.0102378
0.010929
0.0111712
0.0110033
0.0105434
0.00994055
0.00934277
0.00886618
0.00856384
0.00841538
0.00834798
0.00826816
0.00810221
0.00781059
0.00737742
0.00680074
0.00608805
0.00526028
0.00435603
0.00334662
0.00200691
0.00163083
0.00535543
0.00236093
0.00384959
0.00981117
0.00820769
0.00555396
0.00366947
0.00284149
0.00269067
0.00281662
0.00305332
0.00343
0.0039644
0.00470041
0.00570219
0.00696623
0.00836774
0.00969038
0.0107093
0.0112702
0.0113284
0.0109511
0.0102869
0.00952239
0.00884021
0.00837326
0.00815954
0.00813438
0.00818016
0.00817887
0.00807086
0.00783408
0.00746084
0.00695024
0.00630696
0.00553882
0.00460977
0.00320233
0.00153519
0.00295311
0.00539957
0.00239421
0.00360589
0.00838368
0.00793353
0.00635346
0.00489157
0.00393909
0.00346782
0.00336123
0.00355638
0.00391558
0.00443802
0.00521492
0.00632084
0.00770592
0.00917782
0.0104717
0.0113495
0.0116761
0.0114467
0.0107757
0.00986343
0.00894963
0.00825572
0.00790827
0.0078684
0.00798156
0.00809528
0.00809687
0.00798243
0.00775243
0.0074017
0.0069242
0.00631594
0.00555868
0.00446258
0.00249052
0.00178498
0.00355076
0.00500753
0.00235665
0.00328308
0.00755777
0.00765113
0.00672325
0.00572129
0.00496662
0.00452228
0.00436377
0.00440399
0.00462138
0.0051019
0.00597018
0.00724824
0.00878096
0.0102824
0.011445
0.012044
0.0119947
0.0113603
0.0103265
0.00917167
0.00820743
0.00766405
0.00755479
0.00764851
0.0077961
0.00789436
0.00786637
0.00773408
0.00750215
0.00716102
0.00669466
0.00608401
0.0052916
0.00393039
0.00187297
0.00217047
0.00378507
0.004742
0.00227967
0.00299334
0.00675781
0.00730297
0.00686631
0.00622423
0.00568441
0.00532548
0.00515032
0.0050993
0.00528689
0.00589848
0.00703337
0.00857854
0.0102348
0.0116353
0.0124749
0.0125948
0.0120028
0.0108646
0.0094661
0.00819927
0.00739159
0.00704007
0.00699462
0.00708701
0.00721274
0.00729776
0.00727753
0.00714927
0.00691849
0.00657004
0.0060803
0.00542885
0.00458074
0.00330999
0.00187674
0.00227739
0.00391766
0.00523442
0.00225798
0.00300354
0.00670612
0.00746067
0.00694786
0.00642841
0.00600295
0.00569636
0.00549807
0.0054934
0.00594867
0.00702757
0.00863411
0.0104419
0.0120347
0.0130482
0.0132697
0.0126769
0.0114043
0.00977
0.00819089
0.00705329
0.00639126
0.00607478
0.0059806
0.00601343
0.00609962
0.00617754
0.00617751
0.00605004
0.00579631
0.00538947
0.00480875
0.00408141
0.0033014
0.00256923
0.00199083
0.00237743
0.00412731
0.00534633
0.00241314
0.0027097
0.00281949
0.00416539
0.00489777
0.00512536
0.00513042
0.00508241
0.0051814
0.00581723
0.0071636
0.00904862
0.011073
0.0127945
0.013851
0.0140355
0.0133128
0.0118567
0.0099341
0.00810293
0.00668207
0.00573471
0.00518142
0.00490383
0.00478032
0.00473295
0.00472229
0.00472068
0.00467767
0.00450765
0.00419753
0.00372928
0.00314875
0.00260189
0.00224439
0.00212696
0.00223826
0.00282647
0.00468154
0.00544416
0.00244312
0.000965039
0.00174033
0.00266985
0.00341425
0.00427997
0.00575651
0.00792254
0.0103144
0.0124749
0.0140711
0.0148839
0.014779
0.0137726
0.011972
0.00984018
0.00782694
0.00624104
0.00517778
0.00458178
0.00426948
0.00408295
0.00394266
0.00381958
0.00370566
0.00359628
0.00347484
0.00329133
0.00302294
0.00269049
0.00238125
0.00221653
0.002254
0.00247615
0.00288248
0.00361923
0.00533518
0.00587998
0.00247002
0.00178709
0.00247021
0.00359337
0.0056007
0.00832514
0.0110434
0.0131424
0.0146397
0.0155216
0.0157333
0.015171
0.0137355
0.011652
0.00932915
0.00722965
0.00567411
0.00476039
0.0043074
0.00407151
0.00391247
0.00377859
0.00365762
0.00354996
0.00345639
0.00337221
0.00328316
0.00316439
0.00301055
0.0028465
0.00272958
0.00273293
0.00289428
0.0031972
0.00361501
0.00416317
0.00488736
0.00530622
0.00236939
0.00323883
0.00785642
0.00724644
0.00648792
0.00823783
0.0109733
0.0132747
0.0148178
0.0156161
0.0157913
0.0154351
0.0145213
0.0130182
0.0109929
0.0087576
0.00677385
0.00543591
0.0047419
0.00440404
0.00419701
0.00402681
0.00387036
0.00373234
0.0036251
0.00355889
0.00353632
0.00354917
0.00357666
0.00358574
0.00357142
0.0035613
0.00358608
0.00367958
0.00386657
0.00414376
0.0044737
0.00478647
0.00492429
0.00475199
0.00232745
0.00309577
0.00598135
0.00773186
0.00989073
0.0109729
0.0120882
0.0127343
0.0128842
0.0126264
0.0120203
0.0110865
0.00983528
0.00835267
0.00686378
0.00565718
0.00489118
0.00445784
0.00420183
0.00401328
0.0038432
0.0036818
0.00353819
0.00342944
0.00337385
0.00338535
0.00346836
0.00361304
0.00379061
0.00394846
0.00405191
0.00414254
0.00425737
0.00442316
0.0046574
0.00496809
0.00535133
0.00577979
0.00617459
0.00549276
0.00254482
0.00289468
0.00248025
0.00246716
0.00253778
0.00259531
0.00251399
0.00235872
0.00217748
0.00199517
0.00182197
0.00166204
0.00152017
0.00140366
0.00131971
0.0012696
0.00124623
0.00124114
0.00124393
0.00125095
0.00126237
0.00127967
0.0013044
0.00133718
0.00137714
0.00142209
0.00146934
0.00151657
0.0015626
0.00160784
0.00165315
0.00169956
0.00175042
0.00180911
0.0018781
0.00195839
0.00204822
0.0021421
0.00223594
0.00235193
0.00239369
)
;

boundaryField
{
    floor
    {
        type            compressible::alphatWallFunction;
        Prt             0.85;
        value           nonuniform List<scalar> 
36
(
0.000219911
0.000104486
0.000149985
0.000151193
0.000147597
0.000141544
0.000133398
0.000125219
0.000117631
0.000110745
0.000104532
9.89602e-05
9.39239e-05
8.93082e-05
8.49742e-05
8.07313e-05
7.6267e-05
7.25336e-05
6.49422e-05
6.49414e-05
8.41601e-05
9.64051e-05
0.000106509
0.000127252
0.000166032
0.000159945
0.000219909
0.000239738
0.000229125
0.000219777
0.000104485
0.000219774
0.00018627
0.000266733
0.000232692
0.000265699
)
;
    }
    ceiling
    {
        type            compressible::alphatWallFunction;
        Prt             0.85;
        value           nonuniform List<scalar> 
43
(
0.000391169
0.00033885
0.000337189
0.00034618
0.000353493
0.000343207
0.000323434
0.000300161
0.000276526
0.000253844
0.000232681
0.000213714
0.000197995
0.000186587
0.00017975
0.000176562
0.000175877
0.000176268
0.000177233
0.000178793
0.000181148
0.000184511
0.000188966
0.000194395
0.000200497
0.000206901
0.000213289
0.000219499
0.000225577
0.000231646
0.000237833
0.00024458
0.00025233
0.000261407
0.00027193
0.000283662
0.000295885
0.000308056
0.000322964
0.000328281
0.000368248
0.000382048
0.000248578
)
;
    }
    sWall
    {
        type            compressible::alphatWallFunction;
        Prt             0.85;
        value           nonuniform List<scalar> 9(0.000507619 0.00047789 0.000438194 0.000402229 0.000403494 0.000366673 0.000432086 0.000414396 0.000389418);
    }
    nWall
    {
        type            compressible::alphatWallFunction;
        Prt             0.85;
        value           nonuniform List<scalar> 
14
(
0.000159498
0.000190166
0.000222105
0.000327344
0.000322519
0.00031268
0.000310035
0.000329888
0.000333664
0.000337028
0.00032414
0.000318915
0.000347132
0.000327594
)
;
    }
    sideWalls
    {
        type            empty;
    }
    glass1
    {
        type            compressible::alphatWallFunction;
        Prt             0.85;
        value           nonuniform List<scalar> 9(0.000143932 0.000209139 0.000262697 0.000313307 0.00036238 0.000410003 0.000458011 0.000498867 0.000511232);
    }
    glass2
    {
        type            compressible::alphatWallFunction;
        Prt             0.85;
        value           nonuniform List<scalar> 2(0.000282115 0.000320779);
    }
    sun
    {
        type            compressible::alphatWallFunction;
        Prt             0.85;
        value           nonuniform List<scalar> 
14
(
0.000147966
0.000157648
0.000157087
0.000163752
0.000169832
0.000175333
0.000180437
0.000185343
0.000190269
0.000195489
0.000200455
0.000205162
0.000209788
0.00021475
)
;
    }
    Table_master
    {
        type            compressible::alphatWallFunction;
        Prt             0.85;
        value           nonuniform List<scalar> 9(0.000191135 0.000166963 0.000148023 0.000132996 0.00012089 0.000111011 0.000102878 9.62078e-05 9.09706e-05);
    }
    Table_slave
    {
        type            compressible::alphatWallFunction;
        Prt             0.85;
        value           nonuniform List<scalar> 9(0.000216407 0.000197661 0.000183009 0.000170713 0.000160148 0.000150586 0.000141503 0.000132416 0.00012252);
    }
    inlet
    {
        type            fixedValue;
        value           uniform 1.94e-05;
    }
    outlet
    {
        type            zeroGradient;
    }
}


// ************************************************************************* //
