/*--------------------------------*- C++ -*----------------------------------*\
  =========                 |
  \\      /  F ield         | OpenFOAM: The Open Source CFD Toolbox
   \\    /   O peration     | Website:  https://openfoam.org
    \\  /    A nd           | Version:  6
     \\/     M anipulation  |
\*---------------------------------------------------------------------------*/
FoamFile
{
    version     2.0;
    format      ascii;
    class       volScalarField;
    location    "3700";
    object      k;
}
// * * * * * * * * * * * * * * * * * * * * * * * * * * * * * * * * * * * * * //

dimensions      [0 2 -2 0 0 0 0];

internalField   nonuniform List<scalar> 
662
(
0.00204401
0.00239329
0.00248633
0.00272717
0.00296129
0.00319205
0.00342955
0.00368848
0.00395874
0.00421795
0.00442696
0.00450252
0.00432512
0.00377353
0.00248392
0.00051157
0.000704719
0.000910268
0.000990065
0.000955598
0.000831315
0.000705504
0.000602352
0.000520062
0.000453835
0.000399964
0.000355634
0.00031875
0.000287118
0.000258827
0.000232112
0.000216808
0.000183006
0.00375852
0.00691924
0.00352227
0.00369646
0.00397256
0.00427969
0.00462412
0.00502516
0.00553001
0.0061549
0.00681637
0.00732545
0.00744122
0.00702861
0.00603884
0.00369044
0.00250647
0.00165286
0.000503147
0.00109927
0.00148376
0.00166262
0.00167303
0.00142067
0.00114794
0.00092863
0.000762281
0.00063558
0.000537718
0.000460654
0.000397681
0.000345241
0.000306959
0.000285268
0.00052866
0.000313282
0.00575445
0.0134747
0.00422626
0.00387016
0.00400538
0.0041766
0.00436562
0.00463557
0.00505914
0.00566152
0.00640439
0.0071676
0.00765192
0.00752194
0.00674579
0.00561878
0.00459772
0.00241142
0.00121898
0.00159822
0.00184073
0.00199062
0.00197906
0.00153295
0.0011644
0.000897836
0.0007079
0.000571307
0.000471461
0.000397242
0.000341892
0.000301716
0.000279097
0.000282949
0.000840216
0.000436749
0.00824422
0.0233049
0.00573281
0.00387274
0.00379079
0.00382257
0.00385033
0.00400706
0.00438431
0.00492588
0.00567354
0.00663043
0.00737847
0.00739451
0.00686742
0.00616466
0.00541773
0.00413317
0.00325137
0.00289491
0.00274532
0.00271275
0.0026619
0.00250014
0.00196898
0.00163346
0.00141731
0.00126448
0.00114182
0.00103163
0.000932139
0.000833437
0.000726751
0.000548024
0.000439107
0.00123729
0.000576449
0.0111892
0.0335517
0.00999215
0.00446816
0.00387622
0.0037544
0.00367866
0.0038587
0.00429139
0.00473913
0.00545228
0.00653458
0.00733903
0.00729044
0.00667568
0.00590484
0.00520116
0.00458562
0.00437313
0.00404694
0.00380973
0.00360781
0.00336056
0.00303764
0.00268087
0.00242242
0.00225081
0.0021118
0.00197062
0.0018037
0.00160269
0.00137961
0.00114657
0.000895776
0.000687811
0.000990739
0.00115598
0.00103398
0.00114226
0.00134603
0.0150166
0.0457196
0.0195685
0.00835704
0.00573311
0.0048021
0.00444889
0.00464031
0.00493773
0.00517659
0.00578949
0.00690652
0.00774038
0.00747152
0.00656533
0.00553106
0.00476434
0.00444156
0.00446422
0.0045059
0.00440697
0.00414259
0.00375967
0.00332825
0.00296061
0.00273707
0.0026026
0.00249051
0.00236585
0.00220729
0.00198942
0.00173411
0.00146398
0.00119362
0.000980163
0.000957822
0.00111721
0.00114042
0.00174265
0.0014527
0.0132605
0.0263887
0.0257096
0.01738
0.0114496
0.00825852
0.00679712
0.0063369
0.00609214
0.00586004
0.00621836
0.00739766
0.0086262
0.0078875
0.00659896
0.00531817
0.00455137
0.00443697
0.00463584
0.00472482
0.00456069
0.00419459
0.00373533
0.00328837
0.00295786
0.00278325
0.00270081
0.00264895
0.00259902
0.00253277
0.00242233
0.00222824
0.00199068
0.00173695
0.00154179
0.00145611
0.00154767
0.00176405
0.00235515
0.00204373
0.00824172
0.0141034
0.0157812
0.0158496
0.0145806
0.0123599
0.0102267
0.00853829
0.00720562
0.0067196
0.00756398
0.00907048
0.00954007
0.00816418
0.00643217
0.00501506
0.00440378
0.00439746
0.00451608
0.00446181
0.00417785
0.00375996
0.00332532
0.00296604
0.00273786
0.00263807
0.00262138
0.00265406
0.00272504
0.00283325
0.00297786
0.00312838
0.00320356
0.00325359
0.00342778
0.00400051
0.00514763
0.00674503
0.0136837
0.00467246
0.00157825
0.00640047
0.00838579
0.00880822
0.00830969
0.00752804
0.00725877
0.00834436
0.0102827
0.0113034
0.00972961
0.00752056
0.00549978
0.0044789
0.00410939
0.00402849
0.00395757
0.00375811
0.00343131
0.00305691
0.00272116
0.00248087
0.00235202
0.00231576
0.00234417
0.00242159
0.00254469
0.00271569
0.00293783
0.0032111
0.00355382
0.00398989
0.00456406
0.00524998
0.00590783
0.00636787
0.00659888
0.00409991
0.00318553
0.002992
0.00476584
0.00628562
0.00737662
0.00871118
0.0108159
0.0127991
0.0131772
0.0115421
0.00761457
0.00576048
0.00454683
0.00393533
0.0036501
0.00348775
0.00331033
0.00306722
0.00277975
0.00249393
0.00225996
0.00210576
0.00202774
0.00200892
0.00203479
0.00209934
0.00220421
0.00235731
0.00257322
0.00287214
0.00325977
0.00374047
0.00430791
0.00490373
0.00541586
0.00573402
0.00528891
0.00279905
0.00923829
0.0159957
0.00568256
0.00573774
0.00791373
0.0102027
0.0124081
0.0141203
0.0143471
0.0129173
0.0102184
0.00707521
0.0042797
0.00379382
0.00348506
0.00331009
0.00318661
0.00305191
0.00287872
0.00267248
0.00245876
0.0022636
0.00210362
0.00199212
0.00192753
0.00190611
0.00192703
0.00199222
0.00210517
0.00227
0.00250085
0.00280714
0.00319883
0.00367996
0.00423394
0.00480979
0.00538207
0.00634531
0.00373826
0.00300776
0.00541922
0.0091443
0.0103846
0.0127176
0.0139548
0.0139558
0.0128946
0.0108583
0.00832295
0.00596181
0.00400217
0.00263362
0.0015714
0.00148897
0.00140996
0.00134049
0.00127307
0.00120247
0.00113025
0.0010647
0.00101483
0.000986011
0.000979863
0.000991554
0.00101931
0.00106228
0.00112076
0.0011963
0.00129201
0.00141368
0.00156241
0.00174214
0.00195699
0.00221138
0.00250774
0.00284916
0.00305645
0.00251818
0.00219907
0.00281846
0.0175418
0.0316659
0.0220663
0.0141034
0.00956927
0.00733723
0.006463
0.00623763
0.00595872
0.00593079
0.0067431
0.00803363
0.012929
0.015527
0.0159068
0.0154072
0.0135136
0.011237
0.00935641
0.00780445
0.00681379
0.00697936
0.00833158
0.0095642
0.00472262
0.00762691
0.00875256
0.00863392
0.00791099
0.00726611
0.0076155
0.00931236
0.0110046
0.0111326
0.00229799
0.00386404
0.00559066
0.00685869
0.00795201
0.00966688
0.0119342
0.0132456
0.0125766
0.0103667
0.0270537
0.0110291
0.00499356
0.00685975
0.00899088
0.0113195
0.0133878
0.0144605
0.0138101
0.0116779
0.00862815
0.00581783
0.014512
0.0096326
0.011645
0.0135223
0.0140858
0.0135558
0.0119815
0.00960427
0.00709798
0.0049213
0.00324295
0.0021323
0.0144439
0.0184789
0.0208086
0.0187742
0.0150142
0.0114952
0.00914884
0.00778142
0.00681843
0.00629967
0.00677432
0.00811738
0.00921387
0.0110738
0.0116441
0.0119023
0.0119253
0.0110173
0.00962553
0.00824213
0.00719569
0.00726971
0.00870439
0.0101965
0.0029677
0.00355649
0.00576283
0.00698319
0.00730455
0.00735476
0.00824764
0.010329
0.0120537
0.0119393
0.00190681
0.00356448
0.00538482
0.00723235
0.00926603
0.0117666
0.0137685
0.0140766
0.0126472
0.00973469
0.00941541
0.0134168
0.00844241
0.00939719
0.0115314
0.0130903
0.0139311
0.0136572
0.012067
0.00974732
0.00704096
0.00470205
0.00785434
0.00648537
0.00730037
0.00787512
0.00773575
0.00695433
0.00575379
0.00438204
0.00314965
0.00220483
0.00156359
0.00137458
0.0157332
0.0210365
0.0201614
0.0169913
0.0131267
0.0101614
0.0083946
0.00726395
0.00647209
0.0063881
0.00740322
0.0087176
0.00955341
0.0114117
0.0117045
0.0120312
0.0115692
0.0103446
0.0089164
0.00763421
0.00704438
0.00786645
0.0095593
0.0104181
0.00239513
0.00475212
0.00650881
0.00722541
0.0073089
0.00761887
0.00920884
0.0113575
0.0122565
0.0111591
0.00230087
0.00448138
0.00629814
0.0082044
0.0104675
0.0129886
0.0141322
0.0135803
0.0113245
0.00835302
0.0240552
0.0109679
0.00849754
0.010565
0.0123603
0.0136164
0.0139641
0.0130003
0.0109652
0.00841435
0.00573813
0.00413018
0.00616006
0.00694089
0.0076173
0.00790616
0.00740859
0.00639375
0.00506932
0.0037326
0.00264197
0.00183905
0.0014046
0.00144192
)
;

boundaryField
{
    floor
    {
        type            kqRWallFunction;
        value           nonuniform List<scalar> 
36
(
0.00248392
0.00051157
0.000704719
0.000910268
0.000990065
0.000955598
0.000831315
0.000705504
0.000602352
0.000520062
0.000453835
0.000399964
0.000355634
0.00031875
0.000287118
0.000258827
0.000232112
0.000216808
0.000183006
0.000183006
0.000313282
0.000436749
0.000576449
0.00103398
0.00114226
0.00134603
0.00248392
0.00369044
0.00250647
0.00165286
0.00051157
0.00165286
0.000503147
0.00241142
0.00121898
0.00325137
)
;
    }
    ceiling
    {
        type            kqRWallFunction;
        value           nonuniform List<scalar> 
58
(
0.00616006
0.00694089
0.0076173
0.00790616
0.00740859
0.00639375
0.00506932
0.0037326
0.00264197
0.00183905
0.0014046
0.00144192
0.0015714
0.00148897
0.00140996
0.00134049
0.00127307
0.00120247
0.00113025
0.0010647
0.00101483
0.000986011
0.000979863
0.000991554
0.00101931
0.00106228
0.00112076
0.0011963
0.00129201
0.00141368
0.00156241
0.00174214
0.00195699
0.00221138
0.00250774
0.00284916
0.00305645
0.00251818
0.00219907
0.00281846
0.00955341
0.0114117
0.00190681
0.00541922
0.00648537
0.00730037
0.00787512
0.00773575
0.00695433
0.00575379
0.00438204
0.00314965
0.00220483
0.00156359
0.00137458
0.00824172
0.0110738
0.00318553
)
;
    }
    sWall
    {
        type            kqRWallFunction;
        value           nonuniform List<scalar> 4(0.00941541 0.00785434 0.00923829 0.00541922);
    }
    nWall
    {
        type            kqRWallFunction;
        value           nonuniform List<scalar> 6(0.00134603 0.0014527 0.00204373 0.00279905 0.00300776 0.00281846);
    }
    sideWalls
    {
        type            empty;
    }
    glass1
    {
        type            kqRWallFunction;
        value           nonuniform List<scalar> 10(0.00204401 0.00375852 0.00575445 0.00824422 0.0111892 0.0150166 0.0144439 0.00921387 0.0132605 0.00824172);
    }
    glass2
    {
        type            kqRWallFunction;
        value           nonuniform List<scalar> 2(0.00467246 0.00409991);
    }
    sun
    {
        type            kqRWallFunction;
        value           nonuniform List<scalar> 
14
(
0.00204401
0.00239329
0.00248633
0.00272717
0.00296129
0.00319205
0.00342955
0.00368848
0.00395874
0.00421795
0.00442696
0.00450252
0.00432512
0.00377353
)
;
    }
    Table_master
    {
        type            kqRWallFunction;
        value           nonuniform List<scalar> 9(0.00153295 0.0011644 0.000897836 0.0007079 0.000571307 0.000471461 0.000397242 0.000341892 0.000301716);
    }
    Table_slave
    {
        type            kqRWallFunction;
        value           nonuniform List<scalar> 9(0.00196898 0.00163346 0.00141731 0.00126448 0.00114182 0.00103163 0.000932139 0.000833437 0.000726751);
    }
    inlet
    {
        type            turbulentIntensityKineticEnergyInlet;
        intensity       0.05;
        value           uniform 0.0009375;
    }
    outlet
    {
        type            zeroGradient;
    }
}


// ************************************************************************* //
