/*--------------------------------*- C++ -*----------------------------------*\
  =========                 |
  \\      /  F ield         | OpenFOAM: The Open Source CFD Toolbox
   \\    /   O peration     | Website:  https://openfoam.org
    \\  /    A nd           | Version:  6
     \\/     M anipulation  |
\*---------------------------------------------------------------------------*/
FoamFile
{
    version     2.0;
    format      ascii;
    class       surfaceScalarField;
    location    "3700";
    object      phi;
}
// * * * * * * * * * * * * * * * * * * * * * * * * * * * * * * * * * * * * * //

dimensions      [1 0 -1 0 0 0 0];

internalField   nonuniform List<scalar> 
1256
(
-0.00305419
0.00311652
-0.00404583
0.000991632
-0.00483573
0.000789891
-0.00547962
0.000643889
-0.00595977
0.000480139
-0.00625799
0.000298216
-0.00634547
8.74746e-05
-0.00617739
-0.000168084
-0.00569628
-0.000481117
-0.00486231
-0.000833976
-0.00370244
-0.00115987
-0.00236591
-0.00133654
-0.00110886
-0.00125705
-0.000200773
-0.00090809
-0.000198417
-0.000964487
0.000968388
-0.000733047
-0.000231448
-8.77563e-05
-0.000645298
0.000533653
-0.000621417
0.00100566
-0.00047201
0.00127186
-0.000266214
0.00138695
-0.000115095
0.00144545
-5.85059e-05
0.00148102
-3.55809e-05
0.00150085
-1.98365e-05
0.00150894
-8.10143e-06
0.00150641
2.52315e-06
0.00148754
1.88555e-05
0.00143306
5.44717e-05
0.00131008
0.000122975
0.00110606
0.000204008
0.000837082
0.000268967
0.000842289
-0.00212367
0.00540853
-0.0030618
0.00192976
-0.00385401
0.0015821
-0.00447013
0.00126
-0.00492952
0.000939516
-0.00522689
0.000595589
-0.00533534
0.000195911
-0.00521158
-0.000291844
-0.00480475
-0.000887955
-0.00408174
-0.00155699
-0.00308067
-0.00216095
-0.00196036
-0.00245685
-0.000929678
-0.00228774
-0.000106546
-0.00173123
0.000664276
-0.000969243
0.0011002
-0.000431894
0.000967274
0.000137587
0.000980909
3.92351e-05
0.000940904
0.00043683
-0.000629051
0.00081421
-0.00102268
0.00113046
-0.000937674
0.00137996
-0.000721515
0.00143649
-0.000322759
0.00144497
-0.000123573
0.00145606
-6.96045e-05
0.00146541
-4.4943e-05
0.00147094
-2.53738e-05
0.00147367
-1.08402e-05
0.00147374
2.4399e-06
0.00146868
2.39081e-05
0.00143263
9.05157e-05
0.00128004
0.000275557
0.00101045
0.000473583
0.000671111
0.000608297
0.00152675
-0.00144341
0.00710838
-0.00219924
0.00268559
-0.00284727
0.00223012
-0.00333117
0.0017439
-0.00370317
0.00131151
-0.00396311
0.000855525
-0.00408001
0.000312804
-0.00399958
-0.000372281
-0.00366394
-0.00122361
-0.00304461
-0.00217633
-0.00218648
-0.00301908
-0.00126065
-0.00338268
-0.000443906
-0.00310449
0.000205797
-0.00238093
0.000710827
-0.00147428
0.000897789
-0.00061886
0.000728248
0.000307124
0.00172105
0.00151408
-0.000558521
0.00172323
-0.0008382
0.00166042
-0.000959881
0.00168339
-0.000960653
0.00187236
-0.000910491
0.00154975
0.00142632
0.00135686
0.00131207
0.00128684
0.00127614
0.00127873
0.00130278
0.00139344
0.00116519
0.000503804
0.000875808
0.000762952
0.000510183
0.000973912
0.00205694
-0.00101735
0.00845536
-0.00154639
0.00321462
-0.0018685
0.00255222
-0.00212088
0.00199628
-0.00232739
0.00151801
-0.00248832
0.00101645
-0.00257177
0.00039624
-0.00250702
-0.000437037
-0.0022224
-0.00150823
-0.00170763
-0.0026911
-0.00102574
-0.00370097
-0.000341923
-0.0040665
0.00021621
-0.00366263
0.000656737
-0.00282146
0.00100371
-0.00182125
0.00121696
-0.000832115
0.00141958
0.000104498
0.00243391
0.000706714
0.00236296
8.34704e-05
0.00217094
-0.000366511
0.00205753
-0.000724789
0.00191719
-0.000819552
0.00175974
-0.000803201
0.00151014
-0.0006609
0.00180981
-0.000299827
0.00196248
-0.000152835
0.0020689
-0.000106575
0.00214703
-7.82955e-05
0.00218769
-4.08197e-05
0.00217107
1.64624e-05
0.002071
9.99065e-05
0.00185083
0.000220013
0.00145063
0.000400033
0.00122246
0.000731965
0.000865608
0.0011198
0.000359185
0.00148033
0.00244163
-0.000845581
0.00969235
-0.00112654
0.00349558
-0.000947799
0.00237347
-0.000910013
0.00195848
-0.000910442
0.00151843
-0.000933435
0.00103944
-0.000927132
0.000389931
-0.000816136
-0.000548041
-0.000540696
-0.00178368
-0.000123154
-0.00310865
0.00031897
-0.0041431
0.000692637
-0.00444017
0.000937189
-0.00390718
0.00112083
-0.00300511
0.00127282
-0.00197324
0.00143746
-0.00099676
0.00173533
-0.000193373
0.0021865
0.000255533
0.00220995
6.00195e-05
0.00212123
-0.000277796
0.00191311
-0.000516672
0.00170154
-0.00060799
0.00150149
-0.000603157
0.00135049
-0.000509906
0.00138468
-0.000334021
0.00144808
-0.000216239
0.00150901
-0.000167513
0.00156989
-0.000139181
0.00162469
-9.56286e-05
0.00165454
-1.33872e-05
0.0016362
0.000118232
0.00155472
0.000301488
0.00141237
0.000542377
0.00126867
0.000875662
0.001104
0.00128445
0.000760146
0.00182417
0.00101322
0.00218855
-0.00113611
0.00217203
-0.0018428
0.000727908
-0.00176642
-0.000978016
0.00405582
0.00705667
-6.32093e-05
0.0014582
0.00112256
0.000214993
0.00114373
0.00095154
0.000522288
0.000852844
0.000798338
0.000623108
0.000732938
0.000684666
0.000668641
0.000542437
0.000451459
0.000762476
0.000223916
7.21719e-05
0.000960034
-0.000262752
-0.000482855
0.00125276
-0.00091492
-0.00116149
0.00154488
-0.0015958
-0.00180497
0.00171197
-0.00210661
-0.00220358
0.00173071
-0.00225583
-0.00220308
0.00162124
-0.00379771
0.00146369
-0.00284756
0.00133515
-0.0018447
0.00129023
-0.00095184
0.00138196
-0.000285114
0.00157216
6.53361e-05
0.00160423
2.79398e-05
0.00149065
-0.000164221
0.00130115
-0.000327176
0.00110607
-0.000412914
0.000932605
-0.000429698
0.000810557
-0.000387865
0.000781654
-0.000305124
0.00081233
-0.000246921
0.000870719
-0.000225909
0.000946158
-0.000214627
0.00103357
-0.000183051
0.00112472
-0.000104538
0.00119974
4.32011e-05
0.00124607
0.000255151
0.00127551
0.000512925
0.00132682
0.000824344
0.00145019
0.00116108
0.00168085
0.00159351
0.00206202
0.00180737
0.00237927
0.00185478
0.00186832
0.00123885
0.000169764
-0.00318953
0.000501663
0.00315602
-0.004617
0.00321058
0.00286461
-0.00237722
0.00208235
0.00143859
-0.00182831
0.00161212
0.00106904
-0.00143495
0.00129532
0.000872567
-0.00121672
0.00114743
0.000611726
-0.00114766
0.00113847
0.000233101
-0.00121857
0.00126046
-0.000304652
-0.0013863
0.00142769
-0.000956314
-0.00154351
0.00155383
-0.00160612
-0.00160697
0.00156311
-0.00206275
-0.00151646
0.00142474
-0.00216411
0.00204379
-0.00312841
-0.00130268
-0.0014104
0.00147839
-0.00228216
0.0010422
-0.00140851
0.000769377
-0.000679024
0.000676158
-0.0001919
0.000707075
3.44142e-05
0.000706294
2.87162e-05
0.000624279
-8.22111e-05
0.000490853
-0.000193756
0.000343638
-0.000265705
0.000209812
-0.000295878
0.000114993
-0.000293053
8.29736e-05
-0.000273111
0.000102678
-0.000266633
0.000153568
-0.000276806
0.000226604
-0.000287669
0.000323373
-0.000279827
0.00045019
-0.000231362
0.000606169
-0.000112785
0.000772833
8.84789e-05
0.000949689
0.000336062
0.00116969
0.000604335
0.00146893
0.000861829
0.00190329
0.00115914
0.00246881
0.00124183
0.0032576
0.00106598
0.00345801
0.00103842
0.00369921
0.00197881
-0.00153991
-0.00379517
0.00415441
-0.00285413
0.00249489
-0.00458271
0.00464857
-0.00176512
0.00169925
-0.00449271
0.00420388
-0.00142123
0.00171006
-0.00387777
0.0035723
-0.00114798
0.00145344
-0.00330905
0.00309304
-0.000772556
0.000988561
-0.00293007
0.00281269
-0.00029291
0.000410285
-0.00273139
0.00267483
0.000318755
-0.000262199
-0.00263456
0.00259234
0.000985319
-0.000943107
-0.00253428
0.00244293
0.00159185
-0.0015005
-0.00231212
0.00213705
0.00196838
-0.00179331
-0.00192425
0.00168018
0.00199532
-0.00175125
0.00173312
-0.00212155
-0.00141386
-0.00132612
0.000898945
-0.001448
0.00027881
-0.000788374
-7.90382e-05
-0.00032118
-0.000212556
-5.8387e-05
-0.000222536
4.43888e-05
-0.000227399
3.35732e-05
-0.00027753
-3.20858e-05
-0.000366692
-0.000104601
-0.000471474
-0.00016093
-0.000569668
-0.00019769
-0.000642909
-0.000219819
-0.000679549
-0.000236479
-0.000687213
-0.000258977
-0.000677789
-0.000286238
-0.000656007
-0.000309458
-0.000617438
-0.000318404
-0.000546952
-0.000301856
-0.000414515
-0.000245229
-0.000202724
-0.000123319
5.88613e-05
7.4469e-05
0.000357828
0.000305361
0.000697021
0.000522627
0.00111601
0.000740148
0.0015679
0.000789936
0.00191368
0.000720191
0.0010171
0.001935
0.00501792
-0.00164064
0.00265636
0.00492676
-0.0047524
0.00459854
-0.00190456
0.00205842
-0.00448943
0.00433887
-0.00171452
0.00186508
-0.00417284
0.00401297
-0.00120686
0.00136673
-0.00386673
0.0037337
-0.000557407
0.000690438
-0.00360759
0.00347294
0.000148501
-1.38485e-05
-0.00331633
0.00312886
0.000819721
-0.000632255
-0.00290389
0.00263976
0.00131644
-0.00105231
-0.00234135
0.00201838
0.00153359
-0.00121062
-0.00168262
0.00134149
0.00145384
-0.0011127
0.00057056
-0.00103834
-0.000983474
-0.0006703
-0.000264924
-0.000612518
-0.000775332
-0.000277971
-0.00100544
-9.10795e-05
-0.00107778
1.39469e-05
-0.00108546
5.20663e-05
-0.00109275
4.08576e-05
-0.00112883
3.98848e-06
-0.00119352
-3.99201e-05
-0.00127402
-8.04367e-05
-0.00135666
-0.000115059
-0.00143231
-0.000144177
-0.00149884
-0.000169961
-0.00156378
-0.000194043
-0.00163726
-0.000212765
-0.00172852
-0.000218211
-0.0018472
-0.000199729
-0.00200532
-0.000143748
-0.00221823
-3.23193e-05
-0.0024835
0.000141938
-0.0028037
0.000394662
-0.00324542
0.00074707
-0.0039259
0.0012031
-0.00492262
0.00173687
-0.00636816
0.00223547
-0.00813986
0.00249188
-0.00792989
0.00172503
-0.00257985
-0.000349696
0.000449831
-2.00317e-06
-0.00326455
0.00300185
-0.00234596
0.00260866
-0.00286356
0.00283028
-0.00197687
0.00201015
-0.00282633
0.00281565
-0.00145697
0.00146765
-0.00278427
0.00272549
-0.000789256
0.000848038
-0.00263537
0.0025133
-0.000120967
0.000243044
-0.00234873
0.00213601
0.000411942
-0.000199217
-0.00188285
0.00159918
0.000749857
-0.000466184
-0.0012956
0.000983754
0.000869856
-0.00055801
-0.000675652
0.000373708
0.000788547
-0.000486604
-0.00102422
-0.000327458
-4.79423e-05
0.000361276
-0.00148457
-0.000152182
-0.00171541
-4.7131e-05
-0.00181509
8.58906e-06
-0.00183977
3.86211e-05
-0.00183756
4.98502e-05
-0.00184185
4.51368e-05
-0.00186721
2.93417e-05
-0.00191633
9.1903e-06
-0.00198338
-1.33925e-05
-0.00205958
-3.88596e-05
-0.00214197
-6.18021e-05
-0.00223184
-8.00989e-05
-0.00233345
-9.24425e-05
-0.00244989
-9.63316e-05
-0.00258077
-8.73352e-05
-0.00272121
-5.93001e-05
-0.00285846
-6.50352e-06
-0.00297922
8.84321e-05
-0.00308223
0.00024494
-0.00317336
0.000485786
-0.00325753
0.000831233
-0.00333656
0.00128212
-0.00337624
0.00177654
-0.00326526
0.00212448
-0.00248834
0.00171495
-0.000487212
-0.000276114
-0.0029815
0.00414808
-0.00359231
-0.000360933
-0.000237516
-0.00173119
-0.00389592
0.00350568
-0.00298114
-0.000874237
0.00183939
-0.00112865
-0.00221773
0.00150699
0.000636842
-0.00028479
-0.00184786
0.00149581
1.62801e-05
0.00018806
-0.00137957
0.00117524
-0.000331629
0.000418399
-0.000849784
0.000763017
-0.00045067
0.000431516
-0.000333124
0.000352278
-0.000367389
0.000265686
4.27322e-05
5.8969e-05
-0.00012872
-4.12484e-05
0.000239705
-6.97393e-05
0.000229771
-0.000419522
0.000302899
-0.000113151
0.000593852
-0.000737803
0.000268335
-0.000124386
-0.00221721
-6.28267e-06
0.000871899
0.00102413
-0.00239528
2.58784e-05
-0.00247284
3.04219e-05
-0.00249458
3.03263e-05
-0.00248608
3.01128e-05
-0.0024663
3.00633e-05
-0.00244774
2.65658e-05
-0.00243796
1.95544e-05
-0.00243918
1.03987e-05
-0.00245115
-1.42785e-06
-0.00247359
-1.64297e-05
-0.00250597
-2.94274e-05
-0.00254769
-3.83936e-05
-0.00259784
-4.2296e-05
-0.00265432
-3.98619e-05
-0.0027127
-2.89596e-05
-0.00276621
-5.80407e-06
-0.00280455
3.18335e-05
-0.00280576
8.96311e-05
-0.00274673
0.000185904
-0.0025954
0.000334441
-0.00231867
0.000554502
-0.00189961
0.000863046
-0.00131994
0.00119686
-0.000318456
0.00112298
0.00166079
-0.000264302
0.00349176
-0.00210709
0.000602831
0.00221849
-0.00192033
0.0024821
-0.00371654
0.00246422
-0.00122979
0.00455809
-0.00486048
0.000657445
-0.000355058
0.00463604
-0.00415036
-0.000842165
0.000356481
0.00361436
-0.00309891
-0.00102702
0.000511563
0.00262924
-0.00221979
-0.000851997
0.000442544
0.00187922
-0.00161363
-0.000573898
0.0003083
0.00142371
-0.00130452
-0.000297337
0.000178141
0.00124565
-0.00123232
-0.00010821
9.48834e-05
0.00124806
-0.00127813
-3.10934e-05
6.11524e-05
0.00131196
-0.00134418
8.39162e-08
3.2134e-05
0.00137752
-0.00140672
7.87275e-05
-4.95274e-05
-0.00298968
0.00132992
0.00166464
-0.00295271
-0.00291122
-0.00286981
-0.00282857
-0.00278729
-0.00274937
-0.00271831
-0.00269625
-0.00268592
-0.00269056
-0.00270822
-0.00273492
-0.00276565
-0.00279411
-0.00281189
-0.00280677
-0.00276431
-0.00266438
-0.00246855
-0.00212459
-0.00156098
-0.000689281
0.000515735
0.00164645
0.00139024
-0.000709603
-0.00431355
0.00375237
0.00195593
0.00120558
0.000975499
0.000763263
0.000451234
-7.92843e-06
-0.00060869
-0.00127731
-0.00185812
-0.00215694
-0.00208102
-0.00289846
-0.00251377
0.00161706
-0.00225462
0.00182631
-0.00154285
0.00169872
-0.00130079
0.0016269
-0.000973059
0.00123631
-0.000550272
0.000713242
-1.63887e-06
8.29431e-05
0.000649335
-0.000609064
0.00130433
-0.00124628
0.00181764
-0.00168683
0.00202693
-0.00181414
0.00187792
-0.00161161
-0.00530516
-0.00156746
0.00212022
-0.00188242
0.00199153
-0.00148372
0.00164976
-0.00089445
0.00104069
-0.000207615
0.000333729
0.000497078
-0.000340461
0.00109806
-0.000873081
0.0014633
-0.00116488
0.0015281
-0.00119234
0.00132977
-0.000971753
-0.00323799
-0.00263331
0.00260674
-0.00215508
0.00229337
-0.00174399
0.00174795
-0.00113309
0.00116448
-0.00044437
0.000534505
0.000167138
-2.5611e-06
0.000607519
-0.000354359
0.000836931
-0.00053335
0.000851888
-0.000543787
0.000707288
-0.000381524
-0.00145493
-0.00384235
-0.0026938
-0.00201159
0.000869838
-0.00207783
0.00158603
-0.00162149
0.00135299
-0.00112012
0.000976553
-0.000582073
0.000549805
-0.000120642
0.000184769
0.000159284
-2.23206e-05
0.000285978
-9.74584e-05
0.000296828
-0.0001225
0.000207718
-7.36248e-05
0.00115664
0.00273652
-0.00141107
0.00167932
-0.000837775
-0.000300977
7.65392e-05
-0.00101796
0.000481959
-0.000960561
0.000490898
-0.000719391
0.000378817
-0.000429163
0.000239243
-0.000188205
0.000129328
-5.80817e-05
7.38189e-05
-1.53186e-05
4.91511e-05
2.53469e-05
7.98511e-06
0.000173742
-0.000250541
-0.00439462
0.0044051
-0.00410641
0.00377988
-0.0034426
0.0030904
-0.00276511
0.00248969
-0.00227989
0.00211906
-0.00202002
0.00196021
-0.00195064
0.00196474
-0.00200538
0.00203439
-0.00206141
0.00204713
-0.00200666
0.00191229
-0.00178229
0.00161351
-6.05507e-05
0.00254468
0.00120656
-0.00436186
0.00485456
-0.00498581
0.00479131
-0.00453579
0.00427472
-0.0040273
0.00380899
-0.00362779
0.00348066
-0.00335599
0.00324229
-0.0031303
0.00300692
-0.00285871
0.00267465
-0.00245112
0.0021914
-0.00190537
0.00160796
-0.00441368
0.00412615
-0.00396261
0.00385083
-0.0037566
0.00366637
-0.00357397
0.00347516
-0.00336452
0.00322971
-0.00305639
0.00283609
-0.00257053
0.00226808
-0.00194014
0.00159938
-0.00125892
0.000934766
-0.000593154
0.000984083
-0.00119963
0.00136193
-0.0014884
0.00157649
-0.00162086
0.00161912
-0.00157156
0.00148149
-0.00135829
0.0012018
-0.00100673
0.000780249
-0.000532876
0.000277764
-3.08032e-05
-0.000187468
0.00146676
-0.00289846
0.00391293
-0.00412973
0.00356087
-0.00289604
0.00232798
-0.00185918
0.00146676
-0.00114352
0.000886353
-0.000697234
0.000576594
-0.000521656
0.000525094
-0.000574338
0.000654744
-0.00075558
0.00086836
-0.000981429
0.00107858
-0.00112424
0.00329362
-0.00448697
0.00528986
-0.0056113
0.00550232
-0.0051148
0.0046038
-0.00406544
0.00355002
-0.00308517
0.00268618
-0.00235973
0.00210423
-0.00191152
0.00176905
-0.00166214
0.0015771
-0.00150524
0.00144564
-0.00140313
0.00138479
-0.00142409
)
;

boundaryField
{
    floor
    {
        type            calculated;
        value           nonuniform List<scalar> 
36
(
0
0
0
0
0
0
0
0
0
0
0
0
0
0
0
0
0
0
0
-5.21776e-06
-1.33568e-05
-2.00238e-05
-2.55105e-05
-2.2715e-05
-2.12244e-05
-1.99908e-05
-2.36083e-06
-4.03072e-06
-4.66965e-06
-5.42542e-06
-3.90959e-06
-8.21504e-06
-1.17598e-05
-1.18939e-05
-1.46656e-05
-1.25251e-05
)
;
    }
    ceiling
    {
        type            calculated;
        value           nonuniform List<scalar> 
58
(
-3.77773e-05
-3.4888e-05
-3.24486e-05
-2.90395e-05
-2.45269e-05
-2.01799e-05
-1.62619e-05
-1.31493e-05
-1.12245e-05
-1.04499e-05
-1.03565e-05
-9.98638e-06
-1.11767e-05
-1.10969e-05
-1.10764e-05
-1.1088e-05
-1.11341e-05
-1.12247e-05
-1.13597e-05
-1.1518e-05
-1.16644e-05
-1.17661e-05
-1.18019e-05
-1.1779e-05
-1.17017e-05
-1.15752e-05
-1.14037e-05
-1.119e-05
-1.09351e-05
-1.06358e-05
-1.03005e-05
-9.93238e-06
-9.53516e-06
-9.11117e-06
-8.66196e-06
-8.15958e-06
-7.74387e-06
-8.10397e-06
-7.25622e-06
-4.75412e-06
1.65996e-05
9.13347e-06
-0.000131798
-3.74534e-05
-3.64451e-05
-3.3623e-05
-3.10445e-05
-2.67984e-05
-2.23091e-05
-1.81512e-05
-1.45731e-05
-1.20315e-05
-1.07086e-05
-1.03774e-05
-1.02366e-05
2.63258e-05
1.07602e-05
-9.8131e-05
)
;
    }
    sWall
    {
        type            calculated;
        value           nonuniform List<scalar> 4(-0.000184028 -0.000217181 -0.000194834 -0.000260712);
    }
    nWall
    {
        type            calculated;
        value           nonuniform List<scalar> 6(-5.64001e-05 -6.78793e-05 -7.14419e-05 -8.55694e-05 -9.25791e-05 -0.000102026);
    }
    sideWalls
    {
        type            empty;
        value           nonuniform 0();
    }
    glass1
    {
        type            calculated;
        value           nonuniform List<scalar> 10(-6.23363e-05 -0.000168343 -0.000256453 -0.000329632 -0.00039142 -0.000442129 -0.00044641 -0.000417985 -0.000468153 -0.000465227);
    }
    glass2
    {
        type            calculated;
        value           nonuniform List<scalar> 2(-0.000301621 -0.000332134);
    }
    sun
    {
        type            calculated;
        value           uniform 0;
    }
    Table_master
    {
        type            calculated;
        value           nonuniform List<scalar> 9(-1.53905e-07 -1.5406e-07 -1.54112e-07 -1.54143e-07 -1.54164e-07 -1.54177e-07 -1.54182e-07 -1.54176e-07 -1.54146e-07);
    }
    Table_slave
    {
        type            calculated;
        value           nonuniform List<scalar> 9(1.53783e-07 1.5378e-07 1.5374e-07 1.53709e-07 1.53692e-07 1.53691e-07 1.53699e-07 1.53739e-07 1.53822e-07);
    }
    inlet
    {
        type            calculated;
        value           nonuniform List<scalar> 2(-0.00573924 -0.00594248);
    }
    outlet
    {
        type            calculated;
        value           nonuniform List<scalar> 4(0.00505976 0.00446828 0.00287717 0.00586462);
    }
}


// ************************************************************************* //
