/*--------------------------------*- C++ -*----------------------------------*\
  =========                 |
  \\      /  F ield         | OpenFOAM: The Open Source CFD Toolbox
   \\    /   O peration     | Website:  https://openfoam.org
    \\  /    A nd           | Version:  6
     \\/     M anipulation  |
\*---------------------------------------------------------------------------*/
FoamFile
{
    version     2.0;
    format      ascii;
    class       volScalarField;
    location    "20200";
    object      k;
}
// * * * * * * * * * * * * * * * * * * * * * * * * * * * * * * * * * * * * * //

dimensions      [0 2 -2 0 0 0 0];

internalField   nonuniform List<scalar> 
778
(
0.00158602
0.00180121
0.00178799
0.00194644
0.00209755
0.00223968
0.0023762
0.00251166
0.00265185
0.00280506
0.00295525
0.0031016
0.00324926
0.00341189
0.00358579
0.000792656
0.00162628
0.00165281
0.00157389
0.00144601
0.00128342
0.00113104
0.00099926
0.000887532
0.000793022
0.000713287
0.000645259
0.000586244
0.000533705
0.000484937
0.000436441
0.000398084
0.000326166
0.00340719
0.00643382
0.00268752
0.00274594
0.0028875
0.00305395
0.00323413
0.0034297
0.00364273
0.00387293
0.00412499
0.00437893
0.00459507
0.0047008
0.00459546
0.00429907
0.00390778
0.00358056
0.00253691
0.00281336
0.0029563
0.00289905
0.00266617
0.00226658
0.00190673
0.00161008
0.00137011
0.00117614
0.00101729
0.000885486
0.000774225
0.000681411
0.000615417
0.000574964
0.000864425
0.000524309
0.00549121
0.0127823
0.00347805
0.00321191
0.00329712
0.00345484
0.00363608
0.00384008
0.00407023
0.00432677
0.00463487
0.00501049
0.00545124
0.00596162
0.00653367
0.00686306
0.00628023
0.00538715
0.00403623
0.00416829
0.00417255
0.00397604
0.00357913
0.00266758
0.00201731
0.00157738
0.0012707
0.00105026
0.000887635
0.000765137
0.000672236
0.000603991
0.000551728
0.000548935
0.00116472
0.000678627
0.0079743
0.0217608
0.00449151
0.0033905
0.00334114
0.00343762
0.00354891
0.00366828
0.00380838
0.0039906
0.00425844
0.00464807
0.00517148
0.00582649
0.00655703
0.00713748
0.00723057
0.00724549
0.00534162
0.00554694
0.00537329
0.00512359
0.00478597
0.00434818
0.00345651
0.00286022
0.00243741
0.00211133
0.0018518
0.00163317
0.00143962
0.0012595
0.00107856
0.000801445
0.00066035
0.00141941
0.000823056
0.0108775
0.0336382
0.00621367
0.00342478
0.00315791
0.00316654
0.00318914
0.00320942
0.00325162
0.00336051
0.00359413
0.00398889
0.00455397
0.00527856
0.00608986
0.00682087
0.00728547
0.00764421
0.00751524
0.00665162
0.00607059
0.00557686
0.00509786
0.00462923
0.00412371
0.00366656
0.00327603
0.0029384
0.0026321
0.00234855
0.00207993
0.00181911
0.0015555
0.00122275
0.000931684
0.00119023
0.00121694
0.00116918
0.00200508
0.00186193
0.0141763
0.0476028
0.0092857
0.00348994
0.00290821
0.00282236
0.00276406
0.00269926
0.00266394
0.00273417
0.0029804
0.00341423
0.00402463
0.00480072
0.00565795
0.00646571
0.00707192
0.00740821
0.0073227
0.00678803
0.00621294
0.00563544
0.00507336
0.00455588
0.00409177
0.0036963
0.00336368
0.00307424
0.00280729
0.00255203
0.00229954
0.00204278
0.00177432
0.00147197
0.00118003
0.00111403
0.00111313
0.00169424
0.00501689
0.00267323
0.0179938
0.0606092
0.0143628
0.00381982
0.002715
0.00252912
0.00241158
0.00229389
0.00222094
0.00231127
0.00262995
0.00313944
0.00380369
0.00463555
0.00553461
0.00637322
0.00700609
0.00733109
0.00725544
0.00681787
0.0062147
0.00555418
0.00491161
0.00434287
0.00387278
0.00350067
0.0032068
0.00296184
0.00274146
0.00252933
0.00231391
0.00208777
0.00184576
0.00158335
0.00132874
0.00116339
0.00109528
0.00154257
0.0061731
0.00369327
0.0216428
0.0704829
0.0214394
0.00510353
0.00274294
0.00237176
0.00221012
0.002082
0.00202643
0.00221938
0.00264951
0.0032313
0.00393959
0.00477992
0.00570694
0.00658211
0.00723099
0.00751911
0.00738751
0.00689822
0.00619954
0.00542792
0.00469223
0.00406494
0.00357464
0.00321236
0.00294725
0.00274055
0.00256385
0.00239565
0.00222217
0.00203576
0.00183258
0.00161338
0.00139851
0.00123707
0.00116376
0.00207204
0.0134017
0.00622201
0.0228344
0.069491
0.0325366
0.0110607
0.00406914
0.00258794
0.00223581
0.00210337
0.0021906
0.00251277
0.00300054
0.00360287
0.00433568
0.00521911
0.00619414
0.00709713
0.00772541
0.0079294
0.00766956
0.00702981
0.00616903
0.00525151
0.0044095
0.00372341
0.00321686
0.00286855
0.00263484
0.00246824
0.00233537
0.00221042
0.00207855
0.00193254
0.00176975
0.00159276
0.00141841
0.00130382
0.00138385
0.00388431
0.025364
0.00821573
0.0219183
0.0516291
0.0336434
0.0174376
0.00859189
0.00476248
0.00326339
0.00273161
0.00285509
0.0032124
0.00367346
0.0042481
0.00499926
0.00594515
0.0069828
0.00789607
0.00844888
0.00849004
0.00800986
0.00713068
0.00604805
0.00495945
0.00401483
0.00329228
0.00279833
0.00248847
0.00230164
0.00218346
0.00209511
0.00200993
0.00191447
0.00180297
0.00167427
0.00153238
0.00139482
0.0013384
0.00188374
0.00952483
0.0227535
0.00840716
0.0192317
0.0394289
0.0302355
0.0195685
0.0121867
0.00794343
0.00572157
0.00467336
0.00436591
0.00440243
0.00465443
0.00514751
0.0059386
0.00698574
0.00809333
0.00896807
0.00934658
0.00910142
0.00828118
0.00707105
0.00572186
0.00446769
0.00346599
0.00277086
0.00234961
0.00211588
0.00199136
0.00192326
0.0018729
0.00181867
0.00175041
0.00166391
0.00155933
0.00144305
0.0013405
0.00141811
0.00349662
0.0105631
0.0185223
0.00811614
0.0159459
0.0315785
0.0266466
0.0195393
0.0139788
0.0102877
0.00803114
0.00675618
0.00605299
0.00573396
0.00578515
0.00627618
0.00721018
0.0084159
0.00956164
0.0102767
0.0103072
0.00959717
0.00829719
0.00668037
0.0050685
0.00372917
0.00279632
0.00223818
0.00195839
0.00181787
0.00174798
0.00171333
0.00168542
0.00164998
0.00159955
0.00153033
0.00144312
0.00134801
0.00128271
0.00154475
0.00399258
0.0103044
0.0166546
0.00766907
0.0132622
0.025664
0.0233447
0.0186884
0.0145844
0.01159
0.00954602
0.00821213
0.00730246
0.00684285
0.00696047
0.00771884
0.00897064
0.0103472
0.0113807
0.0116816
0.011093
0.0096975
0.00780261
0.00578011
0.00403818
0.00284315
0.00220028
0.0018692
0.00170589
0.00162352
0.00158053
0.00155692
0.001535
0.00150599
0.00146481
0.0014092
0.00134046
0.00126912
0.00124092
0.00151135
0.0035324
0.00924306
0.0170491
0.00785906
0.0133508
0.0224043
0.0220503
0.0177567
0.0143911
0.0118939
0.0100847
0.00876939
0.00791986
0.00777762
0.0084738
0.0098583
0.0114969
0.0128232
0.0133448
0.0127958
0.0112548
0.00898816
0.00653433
0.00432139
0.00296661
0.00222744
0.00186201
0.00168031
0.00158366
0.00152524
0.00148486
0.0014541
0.00142457
0.00139135
0.00135163
0.00130591
0.00125967
0.00123224
0.00128464
0.00161626
0.00329571
0.00880274
0.0147216
0.00876307
0.0108765
0.0117604
0.0129221
0.0125521
0.0113741
0.0100742
0.00894582
0.00820378
0.00830744
0.00942081
0.0112843
0.0133252
0.0148809
0.0154312
0.014737
0.012812
0.0101265
0.00702233
0.00463868
0.00312902
0.0023423
0.00196389
0.00177831
0.00167319
0.00159964
0.00153726
0.00147882
0.00142417
0.00137531
0.00133054
0.00129125
0.00126944
0.00129486
0.00142076
0.0017197
0.00233474
0.00388995
0.00949232
0.0135829
0.00895159
0.0035455
0.00482619
0.00599726
0.00659927
0.00727453
0.00879848
0.0113194
0.0141367
0.0165171
0.0179
0.0179434
0.0165943
0.0140876
0.0105409
0.00727601
0.0048009
0.00330544
0.00254985
0.00220803
0.00204568
0.00195094
0.00187829
0.0018096
0.00173679
0.00165703
0.00157376
0.00150223
0.00145448
0.00144178
0.00149921
0.00169037
0.00209312
0.00277807
0.00386486
0.00575509
0.0101217
0.0152491
0.00878195
0.00444449
0.00628365
0.0080937
0.011003
0.0146849
0.0181395
0.0203724
0.0214084
0.0212819
0.0199975
0.0174192
0.0139176
0.0102732
0.00703037
0.00476214
0.00348269
0.00289272
0.0026468
0.00253557
0.00246951
0.00241841
0.00237275
0.00232829
0.00228043
0.00222339
0.00215379
0.00208001
0.00204092
0.002062
0.00219019
0.00250406
0.00310196
0.00407926
0.00553767
0.00763359
0.0104592
0.0135063
0.00808934
0.0150819
0.0244975
0.018085
0.0143614
0.0169735
0.0206805
0.0228207
0.0235256
0.0230588
0.0216782
0.0196017
0.0169065
0.0137135
0.0103929
0.00749455
0.00544348
0.00432158
0.00382451
0.00361219
0.00349448
0.00340142
0.00331669
0.00324338
0.00318942
0.0031606
0.00315656
0.00316901
0.00318424
0.00319262
0.00322188
0.00331111
0.00349996
0.00385879
0.00448607
0.00549726
0.00702528
0.00926058
0.0123155
0.0160962
0.00822815
0.0138113
0.0170578
0.0178544
0.0207517
0.0216703
0.022085
0.0210908
0.019284
0.0171689
0.0149857
0.0128242
0.0107112
0.00873238
0.00706608
0.00587728
0.00518496
0.00482844
0.00464454
0.00452413
0.00442034
0.00432186
0.0042353
0.00417611
0.00416335
0.00421506
0.00434337
0.00454922
0.00481764
0.0051136
0.00537761
0.00561417
0.00589767
0.00631427
0.0069596
0.0079472
0.0094214
0.0115908
0.0149195
0.0157189
0.0105061
0.0121324
0.00890919
0.00881968
0.00933934
0.00978037
0.0092033
0.00812427
0.00693748
0.00582739
0.00485134
0.00401982
0.00334252
0.00283482
0.00250266
0.00232433
0.00225335
0.00224683
0.00226466
0.00229343
0.00233161
0.00238396
0.00245866
0.00256451
0.00270785
0.00288969
0.00310464
0.00334257
0.00359267
0.00384804
0.0041099
0.00438165
0.00467003
0.00499732
0.00538896
0.00586625
0.00643735
0.00708908
0.00781854
0.00872251
0.00886687
)
;

boundaryField
{
    floor
    {
        type            kqRWallFunction;
        value           nonuniform List<scalar> 
36
(
0.00358579
0.000792656
0.00162628
0.00165281
0.00157389
0.00144601
0.00128342
0.00113104
0.00099926
0.000887532
0.000793022
0.000713287
0.000645259
0.000586244
0.000533705
0.000484937
0.000436441
0.000398084
0.000326166
0.000326166
0.000524309
0.000678627
0.000823056
0.00116918
0.00200508
0.00186193
0.00358579
0.00429907
0.00390778
0.00358056
0.000792656
0.00358056
0.00253691
0.00538715
0.00403623
0.00534162
)
;
    }
    ceiling
    {
        type            kqRWallFunction;
        value           nonuniform List<scalar> 
43
(
0.0121324
0.00890919
0.00881968
0.00933934
0.00978037
0.0092033
0.00812427
0.00693748
0.00582739
0.00485134
0.00401982
0.00334252
0.00283482
0.00250266
0.00232433
0.00225335
0.00224683
0.00226466
0.00229343
0.00233161
0.00238396
0.00245866
0.00256451
0.00270785
0.00288969
0.00310464
0.00334257
0.00359267
0.00384804
0.0041099
0.00438165
0.00467003
0.00499732
0.00538896
0.00586625
0.00643735
0.00708908
0.00781854
0.00872251
0.00886687
0.0108765
0.0117604
0.00444449
)
;
    }
    sWall
    {
        type            kqRWallFunction;
        value           nonuniform List<scalar> 9(0.0219183 0.0192317 0.0159459 0.0132622 0.0133508 0.0108765 0.0150819 0.0138113 0.0121324);
    }
    nWall
    {
        type            kqRWallFunction;
        value           nonuniform List<scalar> 
14
(
0.00186193
0.00267323
0.00369327
0.00840716
0.00811614
0.00766907
0.00785906
0.00876307
0.00895159
0.00878195
0.00808934
0.00822815
0.0105061
0.00886687
)
;
    }
    sideWalls
    {
        type            empty;
    }
    glass1
    {
        type            kqRWallFunction;
        value           nonuniform List<scalar> 9(0.00158602 0.00340719 0.00549121 0.0079743 0.0108775 0.0141763 0.0179938 0.0216428 0.0228344);
    }
    glass2
    {
        type            kqRWallFunction;
        value           nonuniform List<scalar> 2(0.00622201 0.00821573);
    }
    sun
    {
        type            kqRWallFunction;
        value           nonuniform List<scalar> 
14
(
0.00158602
0.00180121
0.00178799
0.00194644
0.00209755
0.00223968
0.0023762
0.00251166
0.00265185
0.00280506
0.00295525
0.0031016
0.00324926
0.00341189
)
;
    }
    Table_master
    {
        type            kqRWallFunction;
        value           nonuniform List<scalar> 9(0.00266758 0.00201731 0.00157738 0.0012707 0.00105026 0.000887635 0.000765137 0.000672236 0.000603991);
    }
    Table_slave
    {
        type            kqRWallFunction;
        value           nonuniform List<scalar> 9(0.00345651 0.00286022 0.00243741 0.00211133 0.0018518 0.00163317 0.00143962 0.0012595 0.00107856);
    }
    inlet
    {
        type            turbulentIntensityKineticEnergyInlet;
        intensity       0.05;
        value           uniform 0.0009375;
    }
    outlet
    {
        type            zeroGradient;
    }
}


// ************************************************************************* //
