/*--------------------------------*- C++ -*----------------------------------*\
  =========                 |
  \\      /  F ield         | OpenFOAM: The Open Source CFD Toolbox
   \\    /   O peration     | Website:  https://openfoam.org
    \\  /    A nd           | Version:  6
     \\/     M anipulation  |
\*---------------------------------------------------------------------------*/
FoamFile
{
    version     2.0;
    format      ascii;
    class       volScalarField;
    location    "470";
    object      epsilon;
}
// * * * * * * * * * * * * * * * * * * * * * * * * * * * * * * * * * * * * * //

dimensions      [0 2 -3 0 0 0 0];

internalField   nonuniform List<scalar> 
458
(
0.00044495
0.000575246
0.000616667
0.000710291
0.000804692
0.00090172
0.00100667
0.00112052
0.00121938
0.00128371
0.00128978
0.00121831
0.00105605
0.000754379
0.000336677
4.04922e-05
6.52869e-05
9.58154e-05
0.00010946
0.000104646
8.56104e-05
6.74186e-05
5.35256e-05
4.3175e-05
3.53587e-05
2.93665e-05
2.47148e-05
2.10317e-05
1.80172e-05
1.54405e-05
1.31129e-05
1.17869e-05
9.10789e-06
0.00108238
0.00160192
0.000534809
0.00051968
0.000537026
0.000571785
0.000630588
0.000716922
0.00081197
0.000888291
0.000915826
0.000878199
0.000782273
0.000640785
0.000514793
0.000774675
0.000443902
0.000239992
3.92509e-05
7.72761e-05
9.64935e-05
9.78098e-05
9.42596e-05
9.47305e-05
7.41122e-05
5.60653e-05
4.26835e-05
3.29308e-05
2.57999e-05
2.05397e-05
1.66105e-05
1.36804e-05
1.18279e-05
1.10498e-05
3.02121e-05
2.01744e-05
0.00193725
0.00386617
0.000620133
0.000473168
0.000482384
0.000527369
0.000603999
0.000712685
0.000830813
0.00092072
0.00095465
0.000921796
0.000830901
0.000689133
0.000536362
0.000432884
0.000368071
0.000401439
0.000141475
0.000143053
0.000130642
0.000116981
0.000109166
0.000209013
0.000139686
9.53503e-05
6.7252e-05
4.91032e-05
3.70629e-05
2.88699e-05
2.32125e-05
1.93741e-05
1.51807e-05
1.3382e-05
6.35857e-05
3.29702e-05
0.00310086
0.00801139
0.000924345
0.000452732
0.000443905
0.000499394
0.000599127
0.000750177
0.000899503
0.000997348
0.00102949
0.000990541
0.000886241
0.000728922
0.000569616
0.000450133
0.00038139
0.000394262
0.000610382
0.000391143
0.000256587
0.000187604
0.000148489
0.000130512
0.000301174
0.000231226
0.000189978
0.000162645
0.000141602
0.000122869
0.000106658
9.11739e-05
7.5123e-05
4.61577e-05
2.9544e-05
0.000112283
5.01218e-05
0.00469581
0.014441
0.00177531
0.000486597
0.00040996
0.000470342
0.000618808
0.000874812
0.00106179
0.00115626
0.00117382
0.00111082
0.000972159
0.000780663
0.000585972
0.000437486
0.000346805
0.000316046
0.000317673
0.0002664
0.000221064
0.000185724
0.000155658
0.000130087
0.00012042
0.000110126
0.000102884
9.66529e-05
8.98546e-05
8.1792e-05
7.33595e-05
6.50812e-05
5.72797e-05
4.68101e-05
3.65213e-05
7.38983e-05
0.000112057
0.000119435
0.000142425
0.000183201
0.00692797
0.0217498
0.00407087
0.000821815
0.000487324
0.000500185
0.000760466
0.00118026
0.0013604
0.00141906
0.00139689
0.00129526
0.00110639
0.000853309
0.000598041
0.000404926
0.000292832
0.00025176
0.00024185
0.000231775
0.000214124
0.000188598
0.000159427
0.000131905
0.000113708
0.000105909
0.000103667
0.000102327
9.93676e-05
9.31992e-05
8.29414e-05
7.14802e-05
6.06605e-05
5.07944e-05
4.38909e-05
5.54155e-05
8.72858e-05
0.000105049
0.000205223
0.0002046
0.00971087
0.0262171
0.00888651
0.0028865
0.0015273
0.00121992
0.00158339
0.0018082
0.0018558
0.00181564
0.00171558
0.00154276
0.00127453
0.000937283
0.000607354
0.000370552
0.000247723
0.000213551
0.000216385
0.000217146
0.000203285
0.000178408
0.000150699
0.000127266
0.000114156
0.000112166
0.000116159
0.000121699
0.000126438
0.000128239
0.000123721
0.000111062
9.78465e-05
8.65398e-05
8.12048e-05
8.94153e-05
0.000121043
0.000177149
0.000327051
0.000345367
0.0104898
0.0299744
0.0160946
0.00972335
0.00609051
0.00433597
0.00350445
0.00296907
0.00262033
0.00236373
0.00212226
0.00183351
0.00144662
0.00099636
0.000576618
0.000312172
0.000202365
0.000186975
0.000192646
0.000189724
0.000173318
0.00015101
0.000130966
0.000118362
0.000115466
0.00012114
0.00013236
0.000147278
0.000165482
0.000186901
0.000210797
0.000231467
0.000245366
0.000273254
0.000329762
0.000480915
0.000820231
0.00137407
0.00407873
0.00127671
0.0098739
0.0172677
0.0132383
0.00999152
0.00752814
0.00583211
0.0046398
0.0038587
0.00333895
0.00292908
0.00253555
0.00209317
0.00152906
0.000931326
0.000409877
0.000224121
0.00016754
0.000156595
0.000153305
0.000144923
0.00013116
0.000117395
0.000108302
0.000106151
0.000111066
0.00012199
0.000138046
0.000159457
0.000187543
0.000224531
0.000273465
0.000337941
0.000424941
0.00054915
0.000729802
0.000970113
0.00124157
0.0014871
0.00169093
0.00104063
0.00342821
0.00466682
0.00510878
0.00507316
0.00482812
0.00445294
0.00393635
0.00331519
0.0026807
0.00202074
0.00114549
0.000524256
0.000249325
0.000158865
0.000129783
0.000119011
0.00011131
0.000102729
9.4488e-05
8.84231e-05
8.63872e-05
8.89092e-05
9.55995e-05
0.000105995
0.000120054
0.000138335
0.000162066
0.000193335
0.00023554
0.000294449
0.000375577
0.000485172
0.000625703
0.000781286
0.000905794
0.000940453
0.000869138
0.000542852
0.00289423
0.00879193
0.00853083
0.00743284
0.0063257
0.00499
0.00363003
0.00231468
0.00133248
0.000721118
0.00036728
0.00020581
0.000141069
0.00011343
9.99464e-05
9.08645e-05
8.29986e-05
7.63134e-05
7.18075e-05
7.01206e-05
7.12704e-05
7.52073e-05
8.19068e-05
9.1559e-05
0.000104688
0.000122205
0.000145501
0.000176652
0.000218607
0.000275061
0.000351149
0.000452043
0.000578522
0.000720104
0.000831829
0.000943867
0.000734296
0.000564684
0.00338111
0.00364306
0.00389095
0.0053674
0.00452724
0.0031482
0.00192634
0.00122424
0.000875994
0.000604299
0.000412159
0.000294011
0.000211946
0.000162874
0.000134351
0.00011578
0.000102094
9.12217e-05
8.28939e-05
7.76434e-05
7.58418e-05
7.73629e-05
8.1918e-05
8.88964e-05
9.81183e-05
0.000109731
0.000124086
0.00014178
0.000163777
0.000191715
0.000226984
0.000271003
0.000325948
0.000394536
0.00047982
0.000597319
0.000652647
0.000612576
0.000493199
0.000390218
)
;

boundaryField
{
    floor
    {
        Cmu             0.09;
        kappa           0.41;
        E               9.8;
        type            epsilonWallFunction;
        value           nonuniform List<scalar> 
36
(
0.000336677
4.04922e-05
6.52869e-05
9.58154e-05
0.00010946
0.000104646
8.56104e-05
6.74186e-05
5.35256e-05
4.3175e-05
3.53587e-05
2.93665e-05
2.47148e-05
2.10317e-05
1.80172e-05
1.54405e-05
1.31129e-05
1.17869e-05
9.10789e-06
9.10789e-06
2.01744e-05
3.29702e-05
5.01218e-05
0.000119435
0.000142425
0.000183201
0.000336677
0.000774675
0.000443902
0.000239992
4.04922e-05
0.000239992
3.92509e-05
0.000401439
0.000141475
0.000610382
)
;
    }
    ceiling
    {
        Cmu             0.09;
        kappa           0.41;
        E               9.8;
        type            epsilonWallFunction;
        value           nonuniform List<scalar> 
43
(
0.00338111
0.00364306
0.00389095
0.0053674
0.00452724
0.0031482
0.00192634
0.00122424
0.000875994
0.000604299
0.000412159
0.000294011
0.000211946
0.000162874
0.000134351
0.00011578
0.000102094
9.12217e-05
8.28939e-05
7.76434e-05
7.58418e-05
7.73629e-05
8.1918e-05
8.88964e-05
9.81183e-05
0.000109731
0.000124086
0.00014178
0.000163777
0.000191715
0.000226984
0.000271003
0.000325948
0.000394536
0.00047982
0.000597319
0.000652647
0.000612576
0.000493199
0.000390218
0.0098739
0.0172677
0.00289423
)
;
    }
    sWall
    {
        Cmu             0.09;
        kappa           0.41;
        E               9.8;
        type            epsilonWallFunction;
        value           uniform 0.00338111;
    }
    nWall
    {
        Cmu             0.09;
        kappa           0.41;
        E               9.8;
        type            epsilonWallFunction;
        value           nonuniform List<scalar> 6(0.000183201 0.0002046 0.000345367 0.000542852 0.000564684 0.000390218);
    }
    sideWalls
    {
        type            empty;
    }
    glass1
    {
        Cmu             0.09;
        kappa           0.41;
        E               9.8;
        type            epsilonWallFunction;
        value           nonuniform List<scalar> 9(0.00044495 0.00108238 0.00193725 0.00310086 0.00469581 0.00692797 0.00971087 0.0104898 0.0098739);
    }
    glass2
    {
        Cmu             0.09;
        kappa           0.41;
        E               9.8;
        type            epsilonWallFunction;
        value           nonuniform List<scalar> 2(0.00127671 0.00104063);
    }
    sun
    {
        Cmu             0.09;
        kappa           0.41;
        E               9.8;
        type            epsilonWallFunction;
        value           nonuniform List<scalar> 
14
(
0.00044495
0.000575246
0.000616667
0.000710291
0.000804692
0.00090172
0.00100667
0.00112052
0.00121938
0.00128371
0.00128978
0.00121831
0.00105605
0.000754379
)
;
    }
    Table_master
    {
        Cmu             0.09;
        kappa           0.41;
        E               9.8;
        type            epsilonWallFunction;
        value           nonuniform List<scalar> 9(0.000209013 0.000139686 9.53503e-05 6.7252e-05 4.91032e-05 3.70629e-05 2.88699e-05 2.32125e-05 1.93741e-05);
    }
    Table_slave
    {
        Cmu             0.09;
        kappa           0.41;
        E               9.8;
        type            epsilonWallFunction;
        value           nonuniform List<scalar> 9(0.000301174 0.000231226 0.000189978 0.000162645 0.000141602 0.000122869 0.000106658 9.11739e-05 7.5123e-05);
    }
    inlet
    {
        type            turbulentMixingLengthDissipationRateInlet;
        mixingLength    0.01;
        phi             phi;
        k               k;
        value           uniform 0.000471672;
    }
    outlet
    {
        type            zeroGradient;
    }
}


// ************************************************************************* //
