/*--------------------------------*- C++ -*----------------------------------*\
  =========                 |
  \\      /  F ield         | OpenFOAM: The Open Source CFD Toolbox
   \\    /   O peration     | Website:  https://openfoam.org
    \\  /    A nd           | Version:  6
     \\/     M anipulation  |
\*---------------------------------------------------------------------------*/
FoamFile
{
    version     2.0;
    format      ascii;
    class       volScalarField;
    location    "470";
    object      T;
}
// * * * * * * * * * * * * * * * * * * * * * * * * * * * * * * * * * * * * * //

dimensions      [0 0 0 1 0 0 0];

internalField   nonuniform List<scalar> 
458
(
302.751
302.473
302.46
302.456
302.453
302.449
302.446
302.441
302.434
302.425
302.417
302.413
302.417
302.433
302.474
302.625
302.602
302.595
302.601
302.608
302.614
302.62
302.626
302.631
302.637
302.643
302.648
302.654
302.66
302.666
302.672
302.68
302.705
302.936
302.506
302.481
302.482
302.484
302.484
302.482
302.476
302.461
302.438
302.414
302.4
302.402
302.417
302.438
302.448
302.458
302.48
302.631
302.58
302.576
302.584
302.594
302.599
302.602
302.604
302.606
302.609
302.611
302.614
302.617
302.62
302.626
302.634
302.647
302.688
303.131
302.551
302.511
302.521
302.534
302.543
302.547
302.543
302.517
302.471
302.423
302.392
302.391
302.412
302.433
302.445
302.453
302.473
302.588
302.566
302.568
302.584
302.603
302.604
302.605
302.606
302.607
302.608
302.61
302.611
302.613
302.615
302.62
302.627
302.639
302.683
303.331
302.61
302.544
302.562
302.591
302.619
302.638
302.637
302.595
302.516
302.434
302.384
302.381
302.409
302.438
302.455
302.462
302.47
302.48
302.498
302.528
302.564
302.6
302.632
302.657
302.676
302.69
302.703
302.713
302.721
302.727
302.733
302.735
302.706
302.677
302.659
302.685
303.528
302.685
302.578
302.595
302.638
302.688
302.731
302.74
302.676
302.558
302.442
302.374
302.372
302.407
302.45
302.477
302.487
302.493
302.508
302.535
302.571
302.612
302.653
302.689
302.72
302.743
302.761
302.775
302.784
302.789
302.789
302.785
302.776
302.753
302.719
302.687
302.688
302.78
302.861
302.862
303.706
302.784
302.633
302.624
302.665
302.724
302.8
302.82
302.725
302.574
302.436
302.362
302.362
302.411
302.472
302.516
302.538
302.549
302.571
302.603
302.643
302.685
302.725
302.76
302.788
302.809
302.824
302.835
302.841
302.842
302.836
302.826
302.811
302.788
302.755
302.719
302.703
302.742
302.773
302.815
303.862
302.947
302.778
302.728
302.737
302.783
302.862
302.855
302.729
302.549
302.4
302.331
302.35
302.425
302.512
302.576
302.612
302.633
302.66
302.693
302.731
302.769
302.803
302.832
302.854
302.869
302.879
302.885
302.886
302.883
302.874
302.859
302.84
302.817
302.788
302.755
302.733
302.741
302.754
302.785
304.093
303.41
303.213
303.074
303.002
302.992
302.994
302.874
302.659
302.443
302.305
302.276
302.345
302.464
302.584
302.664
302.707
302.731
302.756
302.787
302.819
302.849
302.874
302.893
302.907
302.915
302.918
302.919
302.916
302.91
302.901
302.887
302.868
302.848
302.826
302.802
302.789
302.796
302.816
302.965
304.423
304.106
303.859
303.62
303.43
303.294
303.066
302.711
302.382
302.185
302.141
302.221
302.385
302.558
302.707
302.77
302.802
302.823
302.845
302.869
302.892
302.912
302.928
302.938
302.943
302.945
302.944
302.942
302.938
302.933
302.928
302.926
302.926
302.931
302.944
302.967
303.001
303.038
303.066
303.132
297.611
299.297
300.332
300.762
300.939
301.143
301.395
301.694
301.999
302.285
302.576
302.746
302.827
302.863
302.883
302.9
302.917
302.933
302.947
302.957
302.964
302.967
302.968
302.968
302.968
302.967
302.966
302.965
302.966
302.967
302.97
302.978
302.992
303.012
303.039
303.067
303.092
303.117
297.971
299.372
300.218
300.671
301.02
301.389
301.773
302.182
302.497
302.698
302.822
302.885
302.915
302.933
302.946
302.958
302.968
302.976
302.982
302.985
302.987
302.988
302.988
302.988
302.988
302.988
302.988
302.988
302.989
302.99
302.993
302.999
303.008
303.022
303.04
303.062
303.063
303.098
299.484
299.444
299.441
300.486
301.143
301.688
302.165
302.487
302.674
302.804
302.883
302.928
302.957
302.975
302.987
302.995
303.001
303.005
303.009
303.011
303.012
303.012
303.012
303.011
303.01
303.009
303.009
303.008
303.007
303.007
303.006
303.006
303.007
303.01
303.014
303.023
303.034
303.042
303.046
303.088
)
;

boundaryField
{
    floor
    {
        type            wallHeatTransfer;
        Tinf            uniform 305.2;
        alphaWall       uniform 0.24;
        value           nonuniform List<scalar> 
36
(
302.782
303.105
303.037
302.994
302.987
302.997
303.021
303.048
303.076
303.103
303.129
303.154
303.177
303.2
303.223
303.245
303.27
303.289
303.339
303.339
303.232
303.173
303.132
303.132
303.187
303.169
302.782
302.7
302.747
302.814
303.105
302.814
303.113
302.768
302.953
302.745
)
;
    }
    ceiling
    {
        type            wallHeatTransfer;
        Tinf            uniform 303.2;
        alphaWall       uniform 0.24;
        value           nonuniform List<scalar> 
43
(
299.712
299.67
299.663
300.633
301.26
301.784
302.24
302.545
302.721
302.842
302.917
302.96
302.988
303.006
303.017
303.025
303.031
303.036
303.039
303.042
303.043
303.043
303.042
303.041
303.039
303.038
303.036
303.035
303.033
303.032
303.03
303.03
303.029
303.03
303.033
303.04
303.05
303.058
303.062
303.1
304.366
304.07
298.305
)
;
    }
    sWall
    {
        type            wallHeatTransfer;
        Tinf            uniform 315.2;
        alphaWall       uniform 0.36;
        value           uniform 300.894;
    }
    nWall
    {
        type            wallHeatTransfer;
        Tinf            uniform 307.2;
        alphaWall       uniform 0.36;
        value           nonuniform List<scalar> 6(303.665 303.606 303.491 303.703 303.681 303.727);
    }
    sideWalls
    {
        type            empty;
    }
    glass1
    {
        type            wallHeatTransfer;
        Tinf            uniform 315.2;
        alphaWall       uniform 4.3;
        value           nonuniform List<scalar> 9(311.262 310.619 310.211 309.897 309.636 309.395 309.195 309.256 309.481);
    }
    glass2
    {
        type            wallHeatTransfer;
        Tinf            uniform 307.2;
        alphaWall       uniform 4.3;
        value           nonuniform List<scalar> 2(305.557 305.678);
    }
    sun
    {
        type            wallHeatTransfer;
        Tinf            uniform 305.2;
        alphaWall       uniform 0.24;
        value           nonuniform List<scalar> 
14
(
303.009
302.742
302.726
302.713
302.702
302.691
302.681
302.67
302.659
302.648
302.64
302.64
302.652
302.688
)
;
    }
    Table_master
    {
        type            zeroGradient;
    }
    Table_slave
    {
        type            zeroGradient;
    }
    inlet
    {
        type            fixedValue;
        value           uniform 295.15;
    }
    outlet
    {
        type            zeroGradient;
    }
}


// ************************************************************************* //
