/*--------------------------------*- C++ -*----------------------------------*=========                 |
  \      /  F ield         | OpenFOAM: The Open Source CFD Toolbox
   \    /   O peration     | Website:  https://openfoam.org
    \  /    A nd           | Version:  6
     \/     M anipulation  |
\*---------------------------------------------------------------------------*/
FoamFile
{
    version     2.0;
    format      ascii;
    class       volScalarField;
    location    "650";
    object      PMV;
}
// * * * * * * * * * * * * * * * * * * * * * * * * * * * * * * * * * * * * * //

dimensions      [0 0 0 0 0 0 0];

internalField   nonuniform List<scalar> 
458
(
1.3231142357556438
1.077176598798261
1.0445379596205646
1.0155984610562439
0.9970724292067982
0.9883707059544906
0.9908400549839212
1.0055243923197852
1.034656995008706
1.0825976382155202
1.1531181052064894
1.2238223470502085
1.2395771322616624
1.247692921340818
1.260104876457738
1.3741713336340342
1.3608108245649397
1.357470564621698
1.363673862679115
1.3689226645353303
1.3722627421684548
1.3679213534042027
1.3641328331550642
1.3651243554254189
1.3670445634504607
1.3695857332422583
1.3733410218126378
1.3777222373719538
1.3841913986817542
1.3950258880914663
1.4037521677293012
1.4080457837650318
1.421880093239015
1.2554972559094644
1.089096235674397
1.0766699533005313
1.0480993996916657
1.0312320435788733
1.0232682736128602
1.0243085032613144
1.0326209592092193
1.0468730364821404
1.0715058566057214
1.111864952607707
1.1727506980293232
1.236235274131964
1.2467381339431842
1.253898964664839
1.2118936218932466
1.2118073911168665
1.2337486384637462
1.327620626928777
1.347926679288133
1.347926679288133
1.355084632731599
1.3579998189754205
1.3576127966377327
1.3576855474567346
1.3593103165205607
1.360039864777331
1.3603243851115625
1.360771568223928
1.3615992312560858
1.36319237887995
1.3663151254428556
1.374930567114047
1.3832368983915635
1.3894394167005462
1.373223817512393
1.2872667942433509
1.0800458237113497
1.1093408900408086
1.094165307758899
1.0873756269823918
1.083224410911676
1.0835763234519873
1.0799301296189074
1.0667612321297313
1.0555764478089031
1.0663742745539972
1.1151264797886762
1.2066939097664515
1.253421581351989
1.260104876457738
1.2629690983227475
1.2640734946905952
1.2441972362003755
1.2380879157764186
1.3024936067795345
1.3122513296518463
1.320635760099105
1.331396355211623
1.335462510446042
1.3580129268910421
1.3722627421684548
1.3722627421684548
1.3722627421684548
1.3727398916990523
1.3727398916990523
1.3732170401211092
1.3736941874332396
1.3765570479176845
1.3798970008382039
1.3723592917535494
1.2997186339134825
1.3620729734724348
1.073178426216343
1.1329455265340838
1.1437254913791843
1.1607638183242546
1.1722854013711699
1.174273295036229
1.150759142136989
1.0940103473691842
1.0404267794859574
1.027919381173503
1.0733690382020873
1.166173740004459
1.2594576780435358
1.2734709961176092
1.2749030422808982
1.2491730907879917
1.2249550577490245
1.17423845844676
1.2405793904187452
1.2764671290190266
1.3023732767121723
1.3324323105283906
1.3669871357418202
1.3931402356479836
1.3868483608067486
1.3810458357377562
1.379797764299635
1.380927475632867
1.3833775186970347
1.3898896659282047
1.4030375500560661
1.426266265475447
1.4252487444205089
1.4109081397995635
1.3521377222823205
1.2551456326592774
1.4561769012630732
1.0814166453183922
1.1504503791017358
1.1876660305613407
1.2425533070862438
1.2897394603957542
1.2986875145279135
1.2272211355051335
1.1165713949512273
1.0269048835223582
0.9993412240268383
1.0473247234371386
1.1417372665711312
1.245522809451214
1.2930416329318217
1.2949508854013059
1.2838272634793602
1.2553761810662503
1.253816444911614
1.2699791409272072
1.3008992541003572
1.341238368219006
1.382588706322917
1.4229060745570032
1.450022447948154
1.4619238937496357
1.4627281557679157
1.4617754825160783
1.4599961956017333
1.4570338893240193
1.454915459808392
1.4542142762302444
1.4538471163425875
1.438576663974071
1.4121886959415562
1.336549120374021
1.337083749519229
1.333871238755601
1.4185114525734
1.2968321361022876
1.5537879947720095
1.1115113705260982
1.1811584112788962
1.2197034626591545
1.3041513583856121
1.380374132461391
1.417109759491397
1.2572727172494529
1.1154868101375641
1.0097857487503947
0.9790486542313663
1.0317107126174112
1.1374647600492938
1.2562630793635494
1.3207243703347535
1.326928688761429
1.324542431795937
1.3259741888928525
1.3380097411004628
1.3584801659173988
1.392145223946657
1.4233111688717153
1.4509763455078337
1.4729144697093237
1.489604506877724
1.5010480576926801
1.5086766055203673
1.513444246823123
1.5148745087319102
1.5139210023621266
1.5096301462366684
1.5024784403221583
1.4850982572152556
1.4551795946269275
1.4186141250714548
1.3477812396521873
1.341497862815338
1.3343254367783877
1.3593426236600212
1.3671168203193163
1.646151019379562
1.1983050212635298
1.3004650952513581
1.2781735169001753
1.3330398638117538
1.4123393012995922
1.3490505334877314
1.2274319140846577
1.0852395196960343
0.9807565869577257
0.959968851462176
1.0312054703308322
1.1600245234691255
1.3028747712949647
1.3589021110058657
1.3698769779375644
1.3703541329894209
1.376079907295061
1.394210451534481
1.4199719747694874
1.447637680447235
1.474345113779909
1.4967568277252157
1.5139210023621266
1.5258393765263973
1.5329899192354521
1.536803391717243
1.5382334166930505
1.5372800683631795
1.5339432972170706
1.527746223613682
1.5182117314109784
1.5077230586032784
1.4908127108341316
1.4463902234301267
1.3841541820183512
1.3548541479679006
1.3338133223700859
1.3056146115666418
1.4123480442336347
1.7867463633110259
1.5721360062615826
1.5137037252082557
1.3965432938424194
1.3750716916226193
1.3643875797499676
1.293839923603063
1.1525833954704716
1.003754623144078
0.9213974794221733
0.9414690897694985
1.058405416006286
1.2273552288015175
1.3674911862067862
1.4085228461529213
1.4209260365172325
1.4256962696253042
1.4357133434217697
1.454791881486378
1.4786369685259346
1.5015248534280636
1.5215488764648597
1.5363267134195384
1.5463366084764352
1.5525328383970916
1.5549159270090018
1.5553925395812846
1.5539626967090105
1.551579590968793
1.547289893272569
1.5410934218593566
1.5325132277872136
1.5220256051015713
1.5101069142652714
1.4967568277252157
1.4819749968633429
1.4726201956287128
1.445162348619037
1.3660112892482474
1.2791478808742887
1.9964327215157838
1.8483710917340284
1.6866153078622659
1.543193487794356
1.4512014775376936
1.3798826666128252
1.187231047526382
0.968132602070499
0.8366312947055368
0.8363450625763742
0.9527207999711933
1.156893034699116
1.3526986744301996
1.4323743820033905
1.461945775186281
1.474345113779909
1.48292870615439
1.4953263905263245
1.5120139708100926
1.5291763419398996
1.544430018654704
1.5563457595612518
1.5625753410346752
1.557777180209255
1.5524972622017568
1.545608862196443
1.5378046241002465
1.5291551235533836
1.5188864013735233
1.50741269194126
1.494237383231611
1.4793000491238608
1.465266549500108
1.448423682418724
1.429383698165601
1.4110229787340451
1.399511601927326
1.395291197290556
1.3853357013002954
1.3537279244865197
-1.6598602169070735
-0.7544448952901027
-0.19584346696062474
0.005613889447418934
0.14792674508374665
0.33172570343026236
0.5700517701335348
0.8451551682260741
1.1378146705620604
1.3503126898912958
1.4509763455078337
1.4710541234155943
1.4795948322232286
1.4880249243882842
1.4986054317731508
1.51131254246344
1.52309453260904
1.5314855503687201
1.5352207868131338
1.53592216712943
1.533146087596413
1.5279728675732929
1.5217318846695405
1.514267326220813
1.5055757561744596
1.4968961522297506
1.488244462335221
1.4802806715269943
1.4745263550100853
1.4706579699705287
1.4678690229362532
1.466008351430027
1.4640460834882247
1.4647246142553065
1.4751899824869168
1.5115156187051126
1.5786996128719633
1.4263237354159177
-1.6717088899522208
-0.5862106011603117
-0.009829986983088275
0.3127173478050444
0.5203409250372314
0.7782191998812634
1.0457021660948833
1.2772897692025131
1.3727092736876954
1.415927953972703
1.4441996875084226
1.460921885114817
1.4726472588685602
1.4816695754922942
1.4897359633466027
1.4971282788092803
1.5032024550781011
1.5078961343423807
1.510672972270775
1.5111745598919526
1.5095205941883725
1.5073157110386775
1.5042261849325855
1.5009068627284217
1.4975304238402969
1.4942820636712413
1.4918760560907858
1.4907748318173173
1.4909411796951202
1.4936171909649836
1.5004201259757812
1.5120328981246642
1.5243179918307255
1.534652235432708
1.545326599667999
1.580509850557367
1.5286364946070303
1.4695121168868164
-1.133734046075868
-1.1324240482126888
-1.008983301792088
-0.21008866363948742
0.37197055849867106
0.7848792753108952
1.0828611783800288
1.2313751896327558
1.3200753313957805
1.374500092427702
1.4088801515598706
1.4332451018122605
1.4480817287180188
1.4568299512895933
1.462294023381063
1.4651889784281673
1.4669046975604665
1.4668018587268299
1.4652354720309437
1.4630711570233805
1.4605654898924914
1.4573871087314643
1.4547014108723948
1.4520891481749028
1.4501882126350512
1.4496957657036398
1.4498453466859367
1.4515237332978412
1.455261076165529
1.4618009246195938
1.4712538450421773
1.486148282788432
1.5094955680378122
1.5500786340722177
1.6101896579200305
1.616382719086369
1.5883475949538326
1.528058852706451
1.476175725175301
1.4898428431807182
)
;

boundaryField
{
    ".*"
    {
        type            zeroGradient;
    }
}


// ************************************************************************* //
