/*--------------------------------*- C++ -*----------------------------------*=========                 |
  \      /  F ield         | OpenFOAM: The Open Source CFD Toolbox
   \    /   O peration     | Website:  https://openfoam.org
    \  /    A nd           | Version:  6
     \/     M anipulation  |
\*---------------------------------------------------------------------------*/
FoamFile
{
    version     2.0;
    format      ascii;
    class       volScalarField;
    location    "650";
    object      PPD;
}
// * * * * * * * * * * * * * * * * * * * * * * * * * * * * * * * * * * * * * //

dimensions      [0 0 0 0 0 0 0];

internalField   nonuniform List<scalar> 
458
(
41.45787652797586
29.476653136910357
28.029504567179302
26.778693241639147
25.99435052518912
25.630432346406536
25.733410273322647
26.350578669231894
27.598967113421153
29.720665302939935
32.98546323711743
36.41542289415233
37.19911609865601
37.60539647316184
38.23003308713929
44.13433283505689
43.42933204029346
43.25356289909316
43.58014695003979
43.85700759471909
44.03343427642886
43.804154280280144
43.60433733885076
43.65660885007845
43.757887862938055
43.89201653579821
44.09043051394295
44.322214409542966
44.66503302502799
45.24066029504573
45.70556487448926
45.93471547027862
46.67476385996845
37.99769489575168
30.014527386965156
29.45390046139231
28.18555671910478
27.450568237713256
27.10718068671339
27.151900782796986
27.510696228070017
28.131769063936275
29.22250281395482
31.055529980145465
33.92293319978454
37.03232500326664
37.55751012598259
37.91722704789773
35.82656291376756
35.822320595158416
36.9084106944347
41.69208664477947
42.752468542280745
42.752468542280745
43.12813479821431
43.28139966861903
43.26104326745848
43.264869571685324
43.35034851901845
43.388745360450244
43.40372251809998
43.427265160171046
43.470848119782595
43.55477394986976
43.71940702127321
44.17448700161479
44.614409093912656
44.943629353480205
44.08423432518572
39.610273678378746
29.605675091998876
30.93926275250591
30.244759642902025
29.93658031588666
29.748943701422476
29.764827092019146
29.600467048943244
29.010729931746496
28.51467130340147
28.993493501739408
31.20608316979643
35.57112675498594
37.893205246525376
38.23003308713929
38.3747296965111
38.430576957618094
37.43018956829243
37.12475317442373
40.391616261720024
40.89503720357968
41.3292413521328
41.88864005441389
42.10063151397998
43.28208915918764
44.03343427642886
44.03343427642886
44.03343427642886
44.058653270991236
44.058653270991236
44.08387603483513
44.109102559134655
44.260540179394994
44.437385549104
44.038536944891206
40.24883215058224
43.49579982788922
29.29734619463926
32.034831506462396
32.54121967918678
33.34913290547672
33.900577848758005
33.99613289419993
32.87362860769579
30.23770841193125
27.849937519962012
27.307445701942896
29.305881864900215
33.607554060672214
38.197365953929584
38.90700693418599
38.97979709907481
37.6796794592714
36.47154342044411
33.99445731988885
37.249196124917624
39.05935526537897
40.38542121942834
41.94261896911475
43.75485798254436
45.14034770134241
44.80602659724518
44.4982566048649
44.43212850143707
44.491984304222605
44.621866275848454
44.96755128390288
45.66745103327051
46.909915991166635
46.85534305461428
46.08762247107225
42.97335935973081
37.97998643533815
48.51944871184856
29.66741903675387
32.859003633405905
34.64300061367004
37.34790457102109
39.73679517883575
40.195820483352044
36.583922196719016
31.27289434191451
27.263695693603722
26.089708528325275
28.151573482540527
32.4475420820029
37.49659106614976
39.90598064888896
40.0039141852661
39.43451612226711
37.99159696638111
37.91307426021525
38.729726113463364
40.30955910612239
42.4023187645444
44.580039151598605
46.729747243006635
48.18747960742629
48.82977295456019
48.87322592644922
48.821755187195734
48.725646931390834
48.56570408258084
48.45137626090619
48.41354434317302
48.39373640517967
47.57114941983324
46.156066125586975
42.15733801114341
42.18524701694433
42.01763048051572
46.494329726889
40.100492327772265
53.81981056388513
31.039229879032078
34.3280128573502
36.211648538569136
40.47699612623972
44.462663789565774
46.419294340564164
38.08715862506466
31.222737913963414
26.531206939022837
25.243787853673055
27.47128243341666
32.246666590643784
38.03627418106003
41.333838105612635
41.656097644365104
41.53205891148211
41.606468327987464
42.23359939012386
43.30666845510053
45.0874369301741
46.75146033027492
48.23890752713757
49.42407258200042
50.328424795439574
50.94960172008142
51.36411334214293
51.62332097964737
51.701102023668405
51.649247070240556
51.41594687564269
51.02730044245483
50.084050911343695
48.46562874589183
46.49982699604787
42.74484540000841
42.41588801672962
42.0413164241653
43.35204867433647
43.76170020930776
58.842129604120736
35.16064711629113
40.28722388415638
39.14621858333672
41.97428577241191
46.16411720304392
42.811388140621844
36.59438218845654
29.83995279175808
25.314376567067384
24.46290456897482
27.44941853909434
33.31388861574105
40.41124215520506
43.32886841215499
43.90739615142593
43.93259616736271
44.235291278076744
45.197274274464085
46.57254156511212
48.058949643885896
49.501508340856596
50.71657162607676
51.649247070240556
52.297674030100616
52.68694145946964
52.894600287705025
52.972479744204534
52.92055968956593
52.73885328960486
52.40146538615515
51.882622390578824
51.31228396936576
50.39396921170528
47.99174012095934
44.6630588893585
43.11602372150599
42.0146104967957
40.55240899869721
46.16458459319278
66.32305694890687
54.81949110221507
51.63743135570481
45.32142171218978
44.18195182035533
43.617765543724474
39.94691821573655
32.96009815576032
26.275763771007973
22.927981444938993
23.71935893777362
28.63971728668554
36.59057650335599
43.78145357927638
45.960192273154796
46.62364701471378
46.87934369312146
47.417192076392716
48.44470831805411
49.7339099092562
50.975500104489015
52.06418367106381
52.86864131671423
53.413856304859735
53.751425514772116
53.88126492169648
53.90723294287665
53.82932898753782
53.69949027472345
53.465788167370626
53.12824916405872
52.66098631046564
52.09012413067747
51.441865177096815
50.71657162607676
49.9147609380347
49.40814663702815
47.925601747790814
43.70338113597133
39.195849573697856
76.5892045016576
69.47931709518585
61.02439757401628
53.24263862713712
48.25104653078268
44.43662618478362
34.62190696135565
24.79529233027219
19.76622007726513
19.756046367187935
24.169984480181554
33.16479020563018
43.0028089901015
47.237779715990406
48.8309550943235
49.501508340856596
49.96644726960398
50.638917865491145
51.54554837548327
52.479315537423545
53.309995324773205
53.95916904073996
54.29859272746694
54.03716054217986
53.74948722372433
53.37421188896162
52.949127135305645
52.47816044413582
51.91932507203727
51.2954151912702
50.57980769122441
49.76982821539472
49.01040983347684
48.10130564691175
47.077193218097705
46.09375951419668
45.479503740602354
45.25477845681763
44.725742592426826
43.056859009480355
59.58334955441412
16.986944133970965
5.795294814506377
5.000652392801641
5.453413425480434
7.2884469482767855
11.80671945846629
20.070756475433612
32.26309585802032
42.877586548237396
48.23890752713757
49.323403796474494
49.78579735614847
50.242748100277126
50.81694460907599
51.50741099699594
52.148291222014095
52.60503288587243
52.808416772458926
52.8466109305223
52.69544472899367
52.41380259035232
52.07414168268752
51.668080887700754
51.19558574305279
50.72413576451159
50.25465484236432
49.82295355513938
49.51131948424244
49.30197051013382
49.15111653131886
49.0505103963038
48.94444420152162
48.98111682964175
49.54724593777296
51.518452224084506
55.17704554391073
46.91299867202298
60.222504403036034
12.201792795533137
5.002000269903633
7.032719028370337
10.662295108651534
17.761465041266305
28.08046615964578
39.10122289344728
44.05703488870749
46.356050019333146
47.87376015911344
48.77564440750136
49.40961125425272
49.898210030231624
50.335555766083885
50.73673852853696
51.06663342038102
51.321691041825254
51.47263892458329
51.499909014276234
51.40999150817413
51.29014426975397
51.12225365717436
50.94193259946887
50.75857280966333
50.58223275277663
50.45166310081008
50.391914148172496
50.40093914822472
50.54614762984109
50.91549596053897
51.546577504726066
52.21487239051553
52.777456787849125
53.3588356728284
55.275646678376944
52.449927581135015
49.239983328621335
32.07174504686809
32.01043024779318
26.497140974456457
5.915423820166282
7.880516836964134
17.9827557438486
29.732553903941564
36.790291248439544
41.300172288247396
44.15171897539424
45.979275701433345
47.28455350885613
48.08287768284406
48.554696014915564
48.84976971963055
49.00621675500762
49.098971858805236
49.093411459482816
49.00872994477673
48.89175953139808
48.75639417327989
48.58477093760619
48.439826870599624
48.298914294634564
48.19641588593163
48.169869183951754
48.17793249293858
48.26842329377203
48.47002555726265
48.82312965676092
49.334209935142574
50.14098116541712
51.408631067838535
53.61771613727308
56.89093789586548
57.227535964568716
55.70247738935141
52.418483172618956
49.60061709373904
50.341353641137836
)
;

boundaryField
{
    ".*"
    {
        type            zeroGradient;
    }
}


// ************************************************************************* //
