/*--------------------------------*- C++ -*----------------------------------*\
  =========                 |
  \\      /  F ield         | OpenFOAM: The Open Source CFD Toolbox
   \\    /   O peration     | Website:  https://openfoam.org
    \\  /    A nd           | Version:  6
     \\/     M anipulation  |
\*---------------------------------------------------------------------------*/
FoamFile
{
    version     2.0;
    format      ascii;
    class       volScalarField;
    location    "29899.9999981476831";
    object      alphat;
}
// * * * * * * * * * * * * * * * * * * * * * * * * * * * * * * * * * * * * * //

dimensions      [1 -1 -1 0 0 0 0];

internalField   nonuniform List<scalar> 
778
(
0.00104098
0.00111055
0.00110658
0.00115465
0.0011987
0.0012387
0.00127595
0.00131185
0.00134798
0.00138638
0.00142299
0.00145776
0.001492
0.00152883
0.00156727
0.00073682
0.00105526
0.00106375
0.00103794
0.000994839
0.000937326
0.000880043
0.000827262
0.000779653
0.000736948
0.000698887
0.000664701
0.000633562
0.000604502
0.000576222
0.000546655
0.000522116
0.000472592
0.00152464
0.00300727
0.00263926
0.00304629
0.00334171
0.00365496
0.00396745
0.00425544
0.00448723
0.00462212
0.00470141
0.00466871
0.00443582
0.00385905
0.00281853
0.00171599
0.00163612
0.00156615
0.00131876
0.00224617
0.00311281
0.00362431
0.00364792
0.00287946
0.00246254
0.00217356
0.00195437
0.00178011
0.00163146
0.00149998
0.00137761
0.00125788
0.00115043
0.00105775
0.00119175
0.000599163
0.0019341
0.00419872
0.0031135
0.00445314
0.00497581
0.0054182
0.00582002
0.00617366
0.00647321
0.00670797
0.00693546
0.0071748
0.00739468
0.00752554
0.00743875
0.0068113
0.00498219
0.0019212
0.00166382
0.00355982
0.00496737
0.0056324
0.00512158
0.00135137
0.00117497
0.00103893
0.000932529
0.000847888
0.000779582
0.000723869
0.000678544
0.000643197
0.000707218
0.000831994
0.00131818
0.000681638
0.00232903
0.00565823
0.00297923
0.00500691
0.00578044
0.00619435
0.0064987
0.00672386
0.00689191
0.00702808
0.00722182
0.00754915
0.00802678
0.00862755
0.00923189
0.00953038
0.00895084
0.00668121
0.00191369
0.00443068
0.00659418
0.00769315
0.0079635
0.00679767
0.00153912
0.00139982
0.00129199
0.00120234
0.00112596
0.00105739
0.00099276
0.000928565
0.000859212
0.000802799
0.00083243
0.00142806
0.00075041
0.00271827
0.0074902
0.00300557
0.00475969
0.0059488
0.00630149
0.00642938
0.00643415
0.00637015
0.00631354
0.00639468
0.00671261
0.007296
0.00812241
0.00908158
0.00996611
0.0105281
0.0105231
0.00944509
0.00961134
0.00983312
0.00986463
0.00966376
0.00904449
0.00719711
0.00621632
0.00554459
0.00499869
0.0044635
0.00394522
0.00343822
0.00293197
0.00241201
0.00185255
0.00141334
0.00141328
0.00111767
0.000895315
0.00119287
0.00113658
0.00310119
0.00954033
0.00353813
0.00401375
0.00569959
0.00609067
0.00605891
0.00584044
0.00552841
0.00527122
0.00526553
0.00559845
0.00626277
0.0072205
0.00834236
0.00946445
0.0104199
0.0110313
0.0111439
0.0110334
0.0108387
0.0105615
0.0102045
0.00974984
0.00908655
0.00844768
0.00786776
0.00730694
0.0067016
0.00605541
0.00536544
0.00462586
0.00383203
0.00298974
0.00222655
0.00167164
0.00129786
0.00146669
0.00256403
0.00135635
0.00349195
0.0114356
0.00471458
0.00328812
0.00512134
0.00576102
0.00568924
0.00533574
0.00482342
0.0043731
0.00436027
0.00478049
0.00554053
0.00661074
0.00782935
0.00903694
0.0100772
0.0108231
0.0111671
0.0111421
0.0108983
0.0105281
0.0101037
0.00968001
0.00927013
0.00889403
0.00854072
0.0081633
0.00770749
0.00715906
0.00651003
0.00575743
0.00490431
0.00397208
0.00305966
0.00220873
0.00162587
0.00146139
0.00261307
0.00160441
0.0038277
0.0128684
0.00642719
0.00313044
0.0040573
0.00510781
0.0052533
0.00496239
0.0043578
0.00374463
0.00388363
0.00443937
0.00528939
0.00639215
0.00765788
0.00892181
0.0100006
0.0107507
0.0110921
0.0110489
0.0107337
0.0102681
0.00976703
0.00932241
0.00897958
0.00873467
0.00854361
0.00833558
0.0080459
0.00764055
0.00710376
0.00643258
0.00563369
0.00473042
0.00378929
0.0028337
0.00197216
0.0013321
0.00385078
0.00212488
0.00392892
0.0121732
0.00795014
0.00404624
0.00274951
0.00337104
0.00394498
0.00399244
0.00352498
0.00342545
0.00378115
0.00443462
0.00535415
0.00652441
0.00785167
0.00915462
0.010229
0.0109201
0.0111628
0.0109964
0.0105387
0.00993837
0.0093427
0.00886735
0.00856559
0.0084176
0.00835066
0.00827089
0.00810437
0.00781153
0.00737683
0.00679891
0.00608548
0.00525509
0.00434113
0.00330927
0.00189169
0.00170691
0.00610593
0.0024008
0.00384946
0.00981095
0.00820746
0.00555243
0.0036669
0.00283932
0.00269012
0.0028174
0.00305347
0.00342986
0.00396447
0.00470047
0.00570185
0.0069654
0.00836635
0.00968792
0.0107049
0.0112634
0.0113199
0.0109426
0.0102805
0.00951931
0.00884005
0.0083745
0.00816116
0.00813667
0.00818361
0.00818321
0.0080757
0.00783883
0.00746535
0.00695525
0.00631288
0.00554265
0.004622
0.0033182
0.00144641
0.00311771
0.005754
0.00244432
0.00360584
0.00838445
0.00793382
0.00635233
0.00488902
0.00393573
0.00346428
0.00335772
0.00355301
0.00391291
0.00443634
0.00521466
0.00632294
0.00771107
0.00918517
0.0104785
0.0113523
0.0116728
0.0114383
0.0107656
0.00985587
0.00894628
0.00825486
0.00790736
0.00786763
0.00798318
0.00809998
0.00810215
0.00798884
0.00775969
0.00741058
0.00693722
0.00633178
0.00556507
0.0045249
0.00297928
0.00157681
0.00330837
0.00640472
0.00247609
0.00328322
0.0075596
0.00765246
0.00672305
0.00571963
0.00496385
0.00451859
0.00435874
0.00439903
0.00461706
0.00509904
0.00597104
0.00725593
0.00879683
0.0103036
0.0114651
0.0120556
0.0119945
0.0113509
0.0103142
0.00916345
0.00820194
0.00765536
0.00754606
0.00764514
0.00780096
0.00790217
0.00787338
0.00774102
0.00750831
0.00716888
0.00670796
0.00608286
0.00519274
0.00383482
0.00228464
0.0018563
0.00374642
0.00649049
0.00261549
0.00299375
0.0067625
0.00730684
0.00686779
0.00622395
0.00568276
0.00532258
0.00514663
0.00509512
0.00528244
0.00589621
0.00703901
0.00859796
0.0102689
0.0116769
0.0125114
0.0126144
0.0120025
0.0108525
0.00945089
0.00818609
0.00737046
0.00701003
0.00697237
0.00708978
0.00723951
0.00732904
0.00729787
0.00716055
0.00692134
0.00657048
0.00607175
0.00531053
0.00406307
0.00249831
0.00181206
0.0023507
0.00428772
0.00664373
0.00258295
0.00300394
0.00671276
0.00746543
0.00695025
0.00642917
0.00600231
0.00569452
0.00549595
0.0054898
0.00594404
0.00702846
0.00865126
0.0104829
0.0120967
0.013116
0.0133221
0.0126986
0.0113985
0.0097549
0.00816333
0.00700471
0.00631948
0.00600731
0.00595483
0.00604945
0.00618206
0.00626019
0.00622368
0.00606628
0.00579905
0.00541163
0.00484648
0.00395217
0.00270369
0.0018505
0.00200953
0.0029438
0.00442595
0.00575471
0.00241439
0.00270993
0.00282054
0.00416496
0.00489665
0.00512412
0.00512938
0.00508189
0.00517929
0.00581076
0.0071581
0.00905847
0.0111131
0.0128699
0.0139496
0.0141298
0.0133726
0.0118691
0.00991547
0.00805336
0.0065907
0.00560887
0.00505542
0.0048194
0.0047724
0.00481297
0.00485946
0.00484522
0.00473258
0.00450554
0.00419732
0.00382396
0.00337475
0.00280525
0.00218032
0.00189864
0.00230227
0.00328617
0.00447742
0.00519608
0.00229938
0.000963482
0.00173689
0.00266609
0.00341364
0.00428262
0.00575121
0.00791298
0.010316
0.0125083
0.0141497
0.0150044
0.0149153
0.0138852
0.0120284
0.00982573
0.00774311
0.00609091
0.00499084
0.00439649
0.00411988
0.00399861
0.0039397
0.00388801
0.00380299
0.00365969
0.00345999
0.00322686
0.00299626
0.00279454
0.00262377
0.00246798
0.00232808
0.00231152
0.002667
0.00354944
0.00478567
0.00601264
0.00237946
0.00178739
0.00247153
0.00359816
0.0056072
0.00832617
0.0110464
0.0131471
0.0146656
0.015591
0.0158552
0.0153323
0.0138951
0.0117615
0.00934235
0.00711928
0.0054569
0.00448639
0.00402771
0.00383128
0.00374711
0.0037046
0.00366572
0.00360556
0.00351121
0.00338698
0.00325399
0.00313757
0.00305479
0.00300886
0.00299165
0.00299739
0.00303768
0.00316071
0.00347879
0.00420375
0.00574867
0.00645765
0.0025391
0.00323758
0.00787207
0.00726933
0.00650372
0.00824856
0.0109727
0.0132627
0.0148059
0.0156225
0.0158288
0.0155241
0.0146537
0.0131512
0.0110561
0.00865641
0.00648079
0.00501237
0.0042695
0.00396284
0.0038582
0.00384238
0.00386132
0.00388257
0.00388494
0.00385932
0.00381024
0.00375243
0.00370247
0.00367116
0.00366231
0.00367707
0.00372027
0.00380282
0.00394755
0.00419721
0.00463434
0.00543014
0.00727598
0.00737326
0.00262699
0.00309494
0.00598245
0.00772733
0.00989187
0.0109765
0.0120867
0.0127271
0.0128755
0.0126264
0.0120458
0.0111539
0.00994726
0.00846309
0.0068659
0.00543534
0.00442931
0.00386872
0.00360747
0.00352023
0.00353574
0.00361021
0.00370951
0.00380524
0.00387782
0.00392035
0.0039384
0.00394431
0.00394916
0.00395864
0.00397557
0.0040071
0.00407039
0.00419441
0.00441437
0.00476524
0.00528659
0.00602119
0.00736255
0.00775946
0.00270004
0.00289508
0.00248118
0.00246889
0.002541
0.00260051
0.00252313
0.00237374
0.00220054
0.00202744
0.00186202
0.00170462
0.0015562
0.00142391
0.00132128
0.00126054
0.00123437
0.00123025
0.00123926
0.0012554
0.00127487
0.00129527
0.00131521
0.00133413
0.0013522
0.00137024
0.0013895
0.00141153
0.00143813
0.00147155
0.00151497
0.00157266
0.00164927
0.00174801
0.00186869
0.00200769
0.0021607
0.00232566
0.00250119
0.00267668
0.00250913
)
;

boundaryField
{
    floor
    {
        type            compressible::alphatWallFunction;
        Prt             0.85;
        value           nonuniform List<scalar> 
36
(
0.000219876
0.000104482
0.000149921
0.000151107
0.000147494
0.000141437
0.000133307
0.000125151
0.000117581
0.000110704
0.000104492
9.89191e-05
9.38826e-05
8.92676e-05
8.49357e-05
8.06958e-05
7.62351e-05
7.25107e-05
6.49272e-05
6.49263e-05
8.41379e-05
9.63822e-05
0.000106454
0.000127333
0.000169039
0.000161253
0.000219873
0.00023967
0.000229061
0.000219721
0.000104481
0.000219719
0.000186303
0.000266675
0.000232738
0.000265694
)
;
    }
    ceiling
    {
        type            compressible::alphatWallFunction;
        Prt             0.85;
        value           nonuniform List<scalar> 
43
(
0.000391222
0.000338968
0.000337409
0.000346586
0.000354146
0.000344358
0.000325341
0.000303122
0.000280725
0.000259127
0.000238383
0.000218629
0.000200842
0.000186902
0.000178578
0.000174975
0.000174397
0.00017563
0.000177846
0.00018052
0.000183322
0.000186057
0.000188648
0.000191118
0.000193576
0.000196191
0.00019917
0.000202751
0.00020723
0.000213021
0.000220678
0.000230804
0.000243812
0.000259654
0.000277823
0.000297715
0.000319
0.000341481
0.000363801
0.000342522
0.000368276
0.00038218
0.000248617
)
;
    }
    sWall
    {
        type            compressible::alphatWallFunction;
        Prt             0.85;
        value           nonuniform List<scalar> 9(0.000507603 0.000477884 0.000438213 0.000402281 0.000403542 0.000366701 0.000431931 0.000414295 0.000389471);
    }
    nWall
    {
        type            compressible::alphatWallFunction;
        Prt             0.85;
        value           nonuniform List<scalar> 
14
(
0.000160805
0.000190959
0.000224346
0.000333715
0.000337804
0.00035539
0.00035067
0.000329405
0.000314993
0.000325871
0.000345755
0.000356852
0.000365995
0.000341828
)
;
    }
    sideWalls
    {
        type            empty;
    }
    glass1
    {
        type            compressible::alphatWallFunction;
        Prt             0.85;
        value           nonuniform List<scalar> 9(0.000143926 0.000209131 0.000262685 0.00031329 0.00036236 0.00040998 0.000457989 0.000498848 0.000511214);
    }
    glass2
    {
        type            compressible::alphatWallFunction;
        Prt             0.85;
        value           nonuniform List<scalar> 2(0.000290455 0.000325746);
    }
    sun
    {
        type            compressible::alphatWallFunction;
        Prt             0.85;
        value           nonuniform List<scalar> 
14
(
0.00014796
0.000157647
0.000157094
0.000163766
0.000169852
0.000175358
0.000180466
0.000185373
0.000190298
0.000195514
0.000200472
0.000205167
0.000209779
0.000214727
)
;
    }
    Table_master
    {
        type            compressible::alphatWallFunction;
        Prt             0.85;
        value           nonuniform List<scalar> 9(0.000191013 0.000166824 0.000147887 0.000132875 0.00012079 0.000110932 0.000102815 9.61561e-05 9.09255e-05);
    }
    Table_slave
    {
        type            compressible::alphatWallFunction;
        Prt             0.85;
        value           nonuniform List<scalar> 9(0.000216373 0.000197596 0.000182918 0.000170608 0.000160037 0.000150477 0.0001414 0.000132315 0.000122417);
    }
    inlet
    {
        type            fixedValue;
        value           uniform 1.94e-05;
    }
    outlet
    {
        type            zeroGradient;
    }
}


// ************************************************************************* //
