/*--------------------------------*- C++ -*----------------------------------*\
  =========                 |
  \\      /  F ield         | OpenFOAM: The Open Source CFD Toolbox
   \\    /   O peration     | Website:  https://openfoam.org
    \\  /    A nd           | Version:  6
     \\/     M anipulation  |
\*---------------------------------------------------------------------------*/
FoamFile
{
    version     2.0;
    format      ascii;
    class       volScalarField;
    location    "29899.9999981476831";
    object      epsilon;
}
// * * * * * * * * * * * * * * * * * * * * * * * * * * * * * * * * * * * * * //

dimensions      [0 2 -3 0 0 0 0];

internalField   nonuniform List<scalar> 
778
(
0.000253117
0.000306365
0.000303044
0.000344254
0.000385158
0.000425005
0.000464484
0.000504783
0.000547634
0.000595753
0.000644163
0.000692487
0.000742379
0.000798645
0.000860325
8.94568e-05
0.000262448
0.000268809
0.000249715
0.000219884
0.000183919
0.000152225
0.000126451
0.000105856
8.94011e-05
7.62564e-05
6.56079e-05
5.68154e-05
4.93529e-05
4.27479e-05
3.65015e-05
3.1806e-05
2.35941e-05
0.000796974
0.00144323
0.000287035
0.000259657
0.000261767
0.000267746
0.000276647
0.000290082
0.000310341
0.000340545
0.000379741
0.000430823
0.000499154
0.000600291
0.000785354
0.00112888
0.000978349
0.000858084
0.000512192
0.000369498
0.000294123
0.000242729
0.000203872
0.000186678
0.000154536
0.000124898
0.000100628
8.14404e-05
6.64904e-05
5.47944e-05
4.56089e-05
3.86888e-05
3.45003e-05
3.27391e-05
6.57943e-05
4.80728e-05
0.00163056
0.00407918
0.00040744
0.00024299
0.000229171
0.000231085
0.000238301
0.00025057
0.000268473
0.000292734
0.000324839
0.000366868
0.0004212
0.000494852
0.000601195
0.000724422
0.000829499
0.00158364
0.00102836
0.000512511
0.000367772
0.000294266
0.000261993
0.000550952
0.000362136
0.000250356
0.000181049
0.000136091
0.000105781
8.4685e-05
6.97537e-05
5.94122e-05
4.50984e-05
3.79513e-05
0.000108311
7.07779e-05
0.00285337
0.00877076
0.000709944
0.000240779
0.000202537
0.00020007
0.000203237
0.000209858
0.000220668
0.000237574
0.000263245
0.000299955
0.000349115
0.000412193
0.000487846
0.000560055
0.000612265
0.000824254
0.00156484
0.000729152
0.000459878
0.000358333
0.000301919
0.00029179
0.000813975
0.000612365
0.000481478
0.000388045
0.000318695
0.000263946
0.000218443
0.000178748
0.000141614
8.36424e-05
5.47833e-05
0.000149022
9.44314e-05
0.00454572
0.0158283
0.00134647
0.000258389
0.000175779
0.000166834
0.000165835
0.000167803
0.000173958
0.000187457
0.000211686
0.000248331
0.000297681
0.00035914
0.000427544
0.000488914
0.000528334
0.000582333
0.000627374
0.000483168
0.000393508
0.00033106
0.000282311
0.000248616
0.000247805
0.000226723
0.000202865
0.000180982
0.000162604
0.000146448
0.000131788
0.000118207
0.000105058
8.4431e-05
6.40726e-05
0.00010529
0.000138835
0.000160372
0.000379341
0.000328392
0.00676318
0.0248802
0.00255373
0.000318109
0.000155572
0.000137097
0.000132152
0.000130711
0.000134475
0.000148566
0.00017671
0.000218043
0.000270685
0.00033388
0.000401388
0.000462255
0.000502652
0.000521442
0.000504634
0.000438189
0.000373819
0.000315664
0.000264746
0.000223373
0.00019327
0.000169611
0.000150799
0.000135616
0.000123284
0.000112732
0.000103272
9.45125e-05
8.60821e-05
7.5902e-05
6.52511e-05
7.75403e-05
9.9697e-05
0.000214952
0.00109925
0.000558182
0.00967157
0.0336398
0.00458438
0.00046502
0.000150862
0.000116362
0.000107104
0.000103295
0.000107088
0.000127936
0.000166145
0.00021587
0.000273196
0.000339808
0.000408944
0.000470016
0.000509774
0.000520148
0.000494124
0.000437535
0.000371813
0.000307473
0.000250536
0.000204416
0.000169726
0.000144546
0.000126328
0.000112748
0.000102292
9.37146e-05
8.621e-05
7.93256e-05
7.27899e-05
6.61419e-05
6.02652e-05
6.36e-05
7.67839e-05
0.000179729
0.00166287
0.000923803
0.0127584
0.0404096
0.00749128
0.000871315
0.000194263
0.000115376
9.73859e-05
9.14572e-05
9.86343e-05
0.000137715
0.000189296
0.000246243
0.000306952
0.000373617
0.000444473
0.000507708
0.000547054
0.000550661
0.000515507
0.000451444
0.00037546
0.000300933
0.000236456
0.000185941
0.000149302
0.000123987
0.000106733
9.46034e-05
8.57715e-05
7.88302e-05
7.29042e-05
6.75204e-05
6.24562e-05
5.76541e-05
5.38852e-05
5.54264e-05
7.06423e-05
0.000380651
0.00587509
0.00215022
0.0138268
0.0414603
0.0139347
0.00316383
0.000629847
0.000207931
0.000132632
0.000115958
0.000142387
0.000192852
0.000249236
0.000306375
0.000367291
0.000436555
0.000510972
0.000575587
0.000610711
0.000602926
0.000551933
0.000470799
0.000378393
0.000290866
0.000218237
0.000164021
0.000126797
0.000102648
8.73406e-05
7.74064e-05
7.07286e-05
6.57251e-05
6.15059e-05
5.76392e-05
5.39672e-05
5.05663e-05
4.81741e-05
5.12156e-05
9.82781e-05
0.00119451
0.0158633
0.00310327
0.0130038
0.0283706
0.0144163
0.0057262
0.00210357
0.000834093
0.000413392
0.000276682
0.000278795
0.000314387
0.00035593
0.000401639
0.000458631
0.000531082
0.000610249
0.000674169
0.000698662
0.00067038
0.000593482
0.000486411
0.000372489
0.00027065
0.000191185
0.000135835
0.000100766
7.99689e-05
6.80581e-05
6.12815e-05
5.72015e-05
5.42523e-05
5.16882e-05
4.9208e-05
4.67605e-05
4.45584e-05
4.36877e-05
5.20788e-05
0.000197255
0.00357371
0.0120396
0.00327812
0.010689
0.0193575
0.0120389
0.00629968
0.00317362
0.00167394
0.000986095
0.000678473
0.000559542
0.00051694
0.000510144
0.000531405
0.000584014
0.000663484
0.000748382
0.000805757
0.000807459
0.000743749
0.000627465
0.000485558
0.000347317
0.000233555
0.000152645
0.000101961
7.37106e-05
5.89258e-05
5.14644e-05
4.80422e-05
4.625e-05
4.49341e-05
4.36298e-05
4.2201e-05
4.07487e-05
3.98156e-05
4.15434e-05
5.86804e-05
0.000238497
0.0027163
0.0109309
0.00340984
0.00807206
0.0137704
0.0096922
0.00593281
0.00356893
0.00222672
0.00149008
0.00109223
0.000868641
0.000743062
0.000685641
0.000690364
0.000751569
0.000846532
0.000934211
0.000969752
0.000926272
0.000804944
0.000633944
0.000451413
0.000292764
0.000177459
0.000107212
6.95882e-05
5.25693e-05
4.4433e-05
4.06236e-05
3.92359e-05
3.8653e-05
3.82022e-05
3.76164e-05
3.68809e-05
3.6368e-05
3.75231e-05
4.55097e-05
8.54302e-05
0.000326527
0.00229265
0.00861632
0.00401331
0.00612402
0.0101688
0.00779183
0.0053126
0.00357005
0.00246893
0.00178771
0.00136793
0.00109264
0.000925808
0.000859359
0.000887736
0.000985212
0.00110092
0.00117281
0.00115192
0.0010268
0.000820613
0.000585004
0.00036787
0.000208346
0.000114606
7.2114e-05
5.21877e-05
4.27285e-05
3.801e-05
3.57477e-05
3.49619e-05
3.46743e-05
3.44631e-05
3.41942e-05
3.40848e-05
3.53117e-05
4.23489e-05
7.29421e-05
0.000193392
0.000606448
0.00233932
0.00762071
0.00383787
0.00618317
0.00781507
0.0068064
0.00474044
0.00336617
0.00246271
0.00186593
0.00146241
0.00119455
0.00106465
0.00107126
0.00118302
0.00133418
0.00144329
0.00144263
0.00130185
0.00105003
0.000740289
0.000455863
0.00023789
0.00013102
8.16505e-05
5.95952e-05
4.86488e-05
4.25267e-05
3.88647e-05
3.67709e-05
3.5808e-05
3.53943e-05
3.51967e-05
3.5225e-05
3.61685e-05
4.10871e-05
6.18615e-05
0.000140644
0.000393449
0.00107764
0.00278885
0.00621456
0.003141
0.00454616
0.00511611
0.00418628
0.0033625
0.0026403
0.00207058
0.0016494
0.00136201
0.00124474
0.00130093
0.00148072
0.00169244
0.00183219
0.00182359
0.00164086
0.00130178
0.00090713
0.000518487
0.000278086
0.000154872
0.000101522
7.80998e-05
6.60502e-05
5.83462e-05
5.28189e-05
4.88803e-05
4.63615e-05
4.50808e-05
4.48428e-05
4.52225e-05
4.63247e-05
4.9251e-05
5.84517e-05
8.93493e-05
0.000189686
0.000483657
0.0012318
0.00285844
0.00538738
0.00272431
0.00139826
0.00142862
0.00143123
0.00135288
0.00131119
0.00142219
0.00170692
0.00204469
0.00231191
0.00241431
0.00230024
0.00198488
0.00153251
0.000979471
0.000566777
0.000311523
0.00018698
0.000134242
0.000111842
9.9832e-05
9.13125e-05
8.4373e-05
7.87996e-05
7.48713e-05
7.28769e-05
7.28868e-05
7.49593e-05
7.88175e-05
8.42223e-05
9.19645e-05
0.000105788
0.000138116
0.000224611
0.000457957
0.00104517
0.00236567
0.00528634
0.00304298
0.00118794
0.00171486
0.00195266
0.00230832
0.00275468
0.00316054
0.00334246
0.00331213
0.00309272
0.0027039
0.00213435
0.00151449
0.000978003
0.000574565
0.000341637
0.000231774
0.000187149
0.000168217
0.000157705
0.000149812
0.000143098
0.00013761
0.000133987
0.000133067
0.000135596
0.000141982
0.000152057
0.000165774
0.000182847
0.000203026
0.000228638
0.000268347
0.00034575
0.000519411
0.000948987
0.00233567
0.00435246
0.00367453
0.00741419
0.008089
0.00481663
0.00340471
0.00373552
0.00414319
0.00415318
0.00394072
0.00358524
0.00313195
0.00262806
0.00208669
0.00153609
0.00104692
0.000680168
0.000457123
0.00035101
0.000307833
0.000290545
0.000282387
0.000277073
0.000272159
0.00026693
0.000261878
0.000258422
0.000258427
0.000263624
0.000275265
0.000294202
0.000321147
0.000357108
0.000404119
0.000465878
0.000553456
0.000695012
0.000939308
0.00144084
0.00325415
0.00446097
0.00406763
0.00650064
0.00513566
0.00435997
0.00461707
0.00454037
0.00427454
0.00369444
0.00304744
0.0024609
0.00196766
0.00156481
0.00124198
0.000988451
0.000797431
0.000659363
0.000566485
0.000510944
0.000481712
0.000470084
0.000470031
0.000476997
0.000487417
0.000498808
0.000510032
0.000521425
0.00053468
0.000552621
0.000579052
0.000618781
0.000677815
0.000763775
0.000886562
0.00105897
0.00129597
0.00161734
0.00206818
0.00273374
0.00413186
0.00588171
0.00441327
0.00535943
0.00337365
0.0033257
0.00362876
0.00389554
0.00356994
0.00298193
0.0023813
0.00186558
0.00144701
0.00111133
0.000846313
0.000648733
0.000518448
0.000450086
0.000422562
0.000418254
0.000427456
0.000444371
0.000465414
0.000488198
0.000511192
0.000533669
0.000555735
0.000578319
0.000603055
0.000632134
0.000668359
0.000715674
0.000780234
0.000871699
0.00100393
0.00119383
0.00145786
0.00180867
0.00225675
0.00281688
0.00350759
0.00430329
0.00354306
)
;

boundaryField
{
    floor
    {
        Cmu             0.09;
        kappa           0.41;
        E               9.8;
        type            epsilonWallFunction;
        value           nonuniform List<scalar> 
36
(
0.000860325
8.94568e-05
0.000262448
0.000268809
0.000249715
0.000219884
0.000183919
0.000152225
0.000126451
0.000105856
8.94011e-05
7.62564e-05
6.56079e-05
5.68154e-05
4.93529e-05
4.27479e-05
3.65015e-05
3.1806e-05
2.35941e-05
2.35941e-05
4.80728e-05
7.07779e-05
9.44314e-05
0.000160372
0.000379341
0.000328392
0.000860325
0.00112888
0.000978349
0.000858084
8.94568e-05
0.000858084
0.000512192
0.00158364
0.00102836
0.00156484
)
;
    }
    ceiling
    {
        Cmu             0.09;
        kappa           0.41;
        E               9.8;
        type            epsilonWallFunction;
        value           nonuniform List<scalar> 
43
(
0.00535943
0.00337365
0.0033257
0.00362876
0.00389554
0.00356994
0.00298193
0.0023813
0.00186558
0.00144701
0.00111133
0.000846313
0.000648733
0.000518448
0.000450086
0.000422562
0.000418254
0.000427456
0.000444371
0.000465414
0.000488198
0.000511192
0.000533669
0.000555735
0.000578319
0.000603055
0.000632134
0.000668359
0.000715674
0.000780234
0.000871699
0.00100393
0.00119383
0.00145786
0.00180867
0.00225675
0.00281688
0.00350759
0.00430329
0.00354306
0.00454616
0.00511611
0.00118794
)
;
    }
    sWall
    {
        Cmu             0.09;
        kappa           0.41;
        E               9.8;
        type            epsilonWallFunction;
        value           nonuniform List<scalar> 9(0.0130038 0.010689 0.00807206 0.00612402 0.00618317 0.00454616 0.00741419 0.00650064 0.00535943);
    }
    nWall
    {
        Cmu             0.09;
        kappa           0.41;
        E               9.8;
        type            epsilonWallFunction;
        value           nonuniform List<scalar> 
14
(
0.000328392
0.000558182
0.000923803
0.00327812
0.00340984
0.00401331
0.00383787
0.003141
0.00272431
0.00304298
0.00367453
0.00406763
0.00441327
0.00354306
)
;
    }
    sideWalls
    {
        type            empty;
    }
    glass1
    {
        Cmu             0.09;
        kappa           0.41;
        E               9.8;
        type            epsilonWallFunction;
        value           nonuniform List<scalar> 9(0.000253117 0.000796974 0.00163056 0.00285337 0.00454572 0.00676318 0.00967157 0.0127584 0.0138268);
    }
    glass2
    {
        Cmu             0.09;
        kappa           0.41;
        E               9.8;
        type            epsilonWallFunction;
        value           nonuniform List<scalar> 2(0.00215022 0.00310327);
    }
    sun
    {
        Cmu             0.09;
        kappa           0.41;
        E               9.8;
        type            epsilonWallFunction;
        value           nonuniform List<scalar> 
14
(
0.000253117
0.000306365
0.000303044
0.000344254
0.000385158
0.000425005
0.000464484
0.000504783
0.000547634
0.000595753
0.000644163
0.000692487
0.000742379
0.000798645
)
;
    }
    Table_master
    {
        Cmu             0.09;
        kappa           0.41;
        E               9.8;
        type            epsilonWallFunction;
        value           nonuniform List<scalar> 9(0.000550952 0.000362136 0.000250356 0.000181049 0.000136091 0.000105781 8.4685e-05 6.97537e-05 5.94122e-05);
    }
    Table_slave
    {
        Cmu             0.09;
        kappa           0.41;
        E               9.8;
        type            epsilonWallFunction;
        value           nonuniform List<scalar> 9(0.000813975 0.000612365 0.000481478 0.000388045 0.000318695 0.000263946 0.000218443 0.000178748 0.000141614);
    }
    inlet
    {
        type            turbulentMixingLengthDissipationRateInlet;
        mixingLength    0.01;
        phi             phi;
        k               k;
        value           uniform 0.000471671;
    }
    outlet
    {
        type            zeroGradient;
    }
}


// ************************************************************************* //
