/*--------------------------------*- C++ -*----------------------------------*\
  =========                 |
  \\      /  F ield         | OpenFOAM: The Open Source CFD Toolbox
   \\    /   O peration     | Website:  https://openfoam.org
    \\  /    A nd           | Version:  6
     \\/     M anipulation  |
\*---------------------------------------------------------------------------*/
FoamFile
{
    version     2.0;
    format      ascii;
    class       surfaceScalarField;
    location    "35899.999998326668";
    object      phi;
}
// * * * * * * * * * * * * * * * * * * * * * * * * * * * * * * * * * * * * * //

dimensions      [1 0 -1 0 0 0 0];

internalField   nonuniform List<scalar> 
1482
(
-0.00279973
0.00286377
-0.00348386
0.000684129
-0.00414444
0.000660577
-0.00475836
0.000613923
-0.00527952
0.000521159
-0.00569117
0.000411654
-0.00598211
0.00029094
-0.00613931
0.000157196
-0.00614546
6.1527e-06
-0.00597462
-0.000170845
-0.00559685
-0.000377768
-0.00498112
-0.000615723
-0.00405725
-0.000923876
-0.00257901
-0.00147824
-0.00257609
-6.32242e-05
6.80793e-05
0.000781786
-0.00084501
0.00143534
-0.00065355
0.00183566
-0.000400325
0.00205802
-0.000222355
0.00216266
-0.000104649
0.00221006
-4.7394e-05
0.00223299
-2.29313e-05
0.00224289
-9.9006e-06
0.00224388
-9.93644e-07
0.00223684
7.04619e-06
0.00221777
1.9068e-05
0.00217338
4.43917e-05
0.00207042
0.000102953
0.00185339
0.000217032
0.00149522
0.000358171
0.00102267
0.00047255
0.00102911
-0.00204032
0.00507441
-0.00290834
0.00155215
-0.00369407
0.0014463
-0.00434494
0.0012648
-0.00488198
0.00105819
-0.00531046
0.00084014
-0.00562863
0.00060911
-0.00582972
0.000358281
-0.00590308
7.95137e-05
-0.00584092
-0.000233005
-0.00563743
-0.000581256
-0.00528128
-0.000971869
-0.00477129
-0.00143387
-0.00428542
-0.0019641
-0.00470113
-0.00216038
-0.00311569
-0.00157999
-0.00163355
-0.00147646
-0.0016187
0.00131849
-0.0012402
0.00166366
-0.00119018
0.00191629
-0.000906188
0.00210839
-0.000592421
0.00221653
-0.000330501
0.00222557
-0.00011368
0.00222746
-4.92928e-05
0.00222903
-2.44993e-05
0.00222999
-1.08552e-05
0.00223002
-1.02447e-06
0.00222868
8.38328e-06
0.00222449
2.32601e-05
0.00221183
5.70469e-05
0.00214982
0.000164971
0.00189984
0.000467003
0.00146966
0.000788351
0.000904953
0.00103726
0.00195095
-0.00148819
0.00682051
-0.00235896
0.00242293
-0.0031288
0.00221614
-0.00371286
0.00184885
-0.00418331
0.00152864
-0.00455449
0.00121132
-0.00482822
0.000882842
-0.00500129
0.000531352
-0.00506733
0.000145554
-0.00501729
-0.000283045
-0.00484043
-0.000758118
-0.00452928
-0.00128301
-0.00411462
-0.00184853
-0.00371706
-0.00236165
-0.00329662
-0.00258083
-0.00236554
-0.00251107
-0.00127228
-0.00256972
-0.00287814
0.00115135
-0.0023771
0.00165529
-0.00169411
0.00195415
-0.00120505
0.0021477
-0.000785972
0.00217935
-0.00036215
0.00206583
0.00201669
0.00199234
0.00198164
0.00198077
0.00198931
0.00201272
0.00206992
0.00223505
0.00187652
0.000825529
0.00142796
0.00123691
0.000807296
0.00165793
0.00278427
-0.00110598
0.0082577
-0.00192777
0.00324471
-0.00256964
0.00285801
-0.0030298
0.00230901
-0.00339713
0.00189597
-0.00368567
0.00149987
-0.00389844
0.00109561
-0.0040336
0.000666511
-0.00408365
0.000195607
-0.00403543
-0.000331268
-0.00387664
-0.000916906
-0.00360312
-0.00155654
-0.00323738
-0.00221427
-0.00281521
-0.00278382
-0.0022756
-0.00312044
-0.00155582
-0.00323085
-0.000867473
-0.00325807
-0.000686752
-0.00305886
0.00144954
-0.00212084
0.00137953
-0.00230709
0.0016943
-0.00200888
0.00200648
-0.00151723
0.00227247
-0.00105197
0.0025477
-0.000637372
0.00286315
-0.000315612
0.00303156
-0.000168559
0.00309761
-6.62013e-05
0.00308183
1.56205e-05
0.00299297
8.87041e-05
0.00283192
0.000160899
0.00259072
0.000241046
0.00224632
0.000344249
0.0017413
0.000504864
0.00160443
0.000962398
0.00127649
0.00156485
0.000749038
0.00218538
0.0035676
-0.000803694
0.00945458
-0.00157972
0.00402074
-0.00204815
0.00332644
-0.00236366
0.00262452
-0.00260783
0.00214014
-0.00279316
0.0016852
-0.00292466
0.00122711
-0.00300304
0.000744892
-0.00302175
0.000214322
-0.00296419
-0.000388828
-0.00281708
-0.00106401
-0.00257339
-0.00180023
-0.00223961
-0.00254806
-0.00182284
-0.00320058
-0.00131724
-0.00362605
-0.000740469
-0.00380762
-0.000208976
-0.00378956
0.000268283
-0.00353613
0.00112884
-0.0029814
0.00149376
-0.00267202
0.00175162
-0.00226674
0.00200339
-0.001769
0.00223289
-0.00128147
0.00244714
-0.000851621
0.00264919
-0.000517657
0.00276072
-0.000280089
0.00279859
-0.000104075
0.00277442
3.97966e-05
0.00269445
0.000168672
0.00256105
0.000294301
0.00237293
0.000429166
0.00212771
0.000589467
0.00183363
0.000798937
0.00162826
0.00116777
0.00148814
0.00170497
0.00131188
0.00236163
0.00230726
0.00257221
0.00134587
0.000996287
0.00190348
-0.000529053
0.00202184
-0.000575797
0.0104768
-0.00132459
0.00476953
-0.00158392
0.00358577
-0.00174961
0.00279021
-0.0018634
0.00225394
-0.00193474
0.00175654
-0.00197008
0.00126245
-0.00197371
0.000748523
-0.00194241
0.000183021
-0.00185445
-0.000476793
-0.00169994
-0.00121852
-0.00146881
-0.00203136
-0.00116392
-0.00285294
-0.00079116
-0.00357335
-0.000370961
-0.00404626
6.96386e-05
-0.00424822
0.000474966
-0.00419489
0.000849241
-0.0039104
0.00129958
-0.00343174
0.00159744
-0.00296987
0.00179969
-0.00246899
0.0019704
-0.00193971
0.00212179
-0.00143285
0.00225655
-0.000986388
0.00236239
-0.000623493
0.00242213
-0.000339824
0.00243511
-0.000117059
0.00240634
6.85633e-05
0.00234042
0.000234595
0.00224095
0.000393775
0.00211181
0.000558298
0.00196003
0.000741254
0.00180026
0.0009587
0.00170941
0.00125863
0.00176806
0.00164632
0.00198403
0.00214566
0.00223605
0.0023202
0.00175693
0.00147541
0.000826502
0.00040137
0.00294548
-0.000543509
0.0115125
-0.0012436
0.00546961
-0.00119153
0.0035337
-0.00119958
0.00279826
-0.00119172
0.00224608
-0.00115812
0.00172294
-0.00110093
0.00120526
-0.00102592
0.000673505
-0.000927494
8.45998e-05
-0.00077864
-0.000625647
-0.000589372
-0.00140779
-0.000348996
-0.00227174
-6.46391e-05
-0.0031373
0.000240789
-0.00387878
0.000551299
-0.00435677
0.000846827
-0.00454375
0.00110995
-0.00445802
0.00134309
-0.00414355
0.00157417
-0.00366282
0.00173283
-0.00312853
0.00183166
-0.00256782
0.00190089
-0.00200894
0.00195641
-0.00148837
0.00200348
-0.00103346
0.0020369
-0.000656914
0.00205082
-0.00035374
0.00204157
-0.000107805
0.00200961
0.000100522
0.00195771
0.000286491
0.00188932
0.000462168
0.0018093
0.000638321
0.00172592
0.000824631
0.00165425
0.00103037
0.00163825
0.00127463
0.00172484
0.00155973
0.00193961
0.00193089
0.00220715
0.00205266
0.00223787
0.00144469
0.00164175
0.000997485
0.00468957
-0.000483774
0.0125317
-0.00105154
0.00603738
-0.000697076
0.00317924
-0.000635868
0.00273705
-0.000567238
0.00217745
-0.00046238
0.00161808
-0.000333267
0.00107615
-0.000182026
0.000522264
7.15641e-06
-0.000104583
0.000225191
-0.000843681
0.000465015
-0.00164761
0.000723111
-0.00252984
0.000980675
-0.00339486
0.00120993
-0.00410804
0.00140999
-0.00455683
0.00157174
-0.0047055
0.00168979
-0.00457608
0.00176881
-0.00422257
0.00182123
-0.00371524
0.00183035
-0.00313765
0.00180461
-0.00254208
0.00176325
-0.00196758
0.0017214
-0.00144652
0.00168669
-0.000998753
0.0016592
-0.00062942
0.00163495
-0.000329492
0.00160893
-8.17795e-05
0.00157858
0.000130872
0.00154372
0.000321348
0.00150522
0.000500671
0.00146566
0.000677881
0.0014306
0.000859688
0.00141039
0.00105058
0.00142857
0.00125645
0.00151577
0.00147253
0.00172994
0.00171671
0.00204811
0.00173449
0.00222693
0.00126587
0.00175674
0.00146766
0.00681174
0.00297927
0.0101396
0.00202381
0.00699284
0.000870141
0.00433291
0.000371659
0.00323553
0.000214873
0.00233424
0.000271427
0.00156152
0.000425432
0.000922145
0.000639326
0.00030837
0.000898559
-0.000363816
0.00116348
-0.0011086
0.00144218
-0.00192631
0.00170964
-0.00279729
0.00193639
-0.00362162
0.00209802
-0.00426966
0.00218855
-0.00464736
0.0022105
-0.00472745
0.00217261
-0.00453819
0.00208848
-0.00413845
0.00197335
-0.00360012
0.00183294
-0.00299725
0.00167961
-0.00238876
0.00153049
-0.00181846
0.00140046
-0.0013165
0.00129804
-0.000896328
0.00122467
-0.000556049
0.0011756
-0.000280425
0.00114343
-4.96119e-05
0.0011225
0.000151801
0.00110882
0.000335034
0.00109955
0.000509936
0.00109388
0.000683554
0.00109318
0.000860384
0.00110135
0.00104242
0.00112814
0.00122966
0.00119002
0.00141065
0.00134353
0.0015632
0.0016503
0.00142773
0.00176724
0.00114894
0.000450547
0.00278431
0.00764464
0.00403339
0.00624647
0.00366994
0.00735629
0.002544
0.00545884
0.00189037
0.00388917
0.00153374
0.00269087
0.00138895
0.00170632
0.00142282
0.000888267
0.0015973
0.000133893
0.0018494
-0.000615914
0.00212663
-0.00138583
0.00240658
-0.00220626
0.002652
-0.00304271
0.00282115
-0.00379076
0.00288689
-0.0043354
0.0028459
-0.00460636
0.00271194
-0.00459348
0.00250723
-0.00433348
0.00225605
-0.00388726
0.00198113
-0.00332521
0.00169964
-0.00271575
0.00142894
-0.00211806
0.00118715
-0.00157667
0.000989373
-0.00111872
0.000842478
-0.000749433
0.000745788
-0.000459359
0.000690602
-0.000225238
0.000665838
-2.4848e-05
0.000662206
0.000155433
0.000672176
0.000325064
0.000690286
0.000491827
0.000713136
0.000660704
0.000737967
0.000835553
0.000760774
0.00101961
0.000773275
0.00121716
0.000750605
0.00143332
0.000615608
0.00169819
-2.84128e-05
0.0020718
-0.00196609
0.00308682
-0.00336525
0.00418344
0.00438254
0.00241035
0.00400065
0.00330584
0.00646081
0.00324964
0.00551504
0.00303871
0.0041001
0.00284777
0.00288182
0.00272468
0.00182942
0.00271095
0.000901997
0.00280008
4.4765e-05
0.00296213
-0.00077797
0.00317288
-0.00159657
0.00339062
-0.00242401
0.00355536
-0.00320744
0.00361221
-0.0038476
0.00353442
-0.0042576
0.0033274
-0.00439933
0.00301727
-0.00428335
0.00263838
-0.00395459
0.00222405
-0.00347293
0.00180381
-0.00290497
0.00140114
-0.00231309
0.00103776
-0.00175469
0.000733505
-0.00127241
0.000502939
-0.000888153
0.000345863
-0.000592356
0.000254252
-0.000367749
0.000211883
-0.000182869
0.000204297
-1.72624e-05
0.000220345
0.000139385
0.000251759
0.000293651
0.000293114
0.000450472
0.000340613
0.000613205
0.000389667
0.0007865
0.000432967
0.000976309
0.00045493
0.0011952
0.000417327
0.00147092
0.000240641
0.00187488
-0.000288048
0.00260065
-0.00137199
0.00417123
-0.00186857
0.00468027
0.00262873
0.00145633
0.00273859
0.00274751
0.00516963
0.00343169
0.00483086
0.00371816
0.00381363
0.00381717
0.00278281
0.00384585
0.00180074
0.00388253
0.000865318
0.00395204
-2.47427e-05
0.00406207
-0.000887996
0.0042021
-0.00173661
0.00432099
-0.00254289
0.00434805
-0.0032345
0.00423162
-0.00373116
0.00395944
-0.0039854
0.003554
-0.00399387
0.00305511
-0.00378445
0.00250655
-0.00340602
0.00194685
-0.00291324
0.00140994
-0.00236806
0.000922024
-0.00182517
0.0005102
-0.00134287
0.000193401
-0.000955611
-2.10016e-05
-0.000673752
-0.000147756
-0.000465602
-0.000210862
-0.000304643
-0.000231547
-0.000162184
-0.000222584
-2.62257e-05
-0.000192298
0.000109099
-0.000146301
0.000247654
-8.82648e-05
0.000392436
-2.08542e-05
0.000545795
5.29332e-05
0.000712713
0.000128354
0.000900889
0.000196579
0.00112697
0.000233954
0.00143353
0.000186882
0.00192192
8.46903e-05
0.00270282
0.00015703
0.00409924
0.000159138
0.00467847
0.00291141
0.00216759
0.000796978
0.00293853
0.00439869
0.00359051
0.00417888
0.00416218
0.00324196
0.00449115
0.00245384
0.00466656
0.00162533
0.00478421
0.000747671
0.00488924
-0.000129772
0.00499534
-0.000994102
0.00507298
-0.00181425
0.00505698
-0.00252689
0.00488726
-0.00306477
0.00454129
-0.00338518
0.00403803
-0.00348213
0.00342249
-0.00337833
0.00274548
-0.00310742
0.00205525
-0.00271578
0.00138939
-0.00224738
0.000786241
-0.00176491
0.000270876
-0.00130981
-0.0001186
-0.00095339
-0.000375989
-0.000698223
-0.000526647
-0.000523096
-0.000606021
-0.000386229
-0.000641545
-0.000269121
-0.000645731
-0.000157999
-0.000625783
-4.61729e-05
-0.000586628
6.99444e-05
-0.000531599
0.000192626
-0.000463278
0.000324115
-0.00038391
0.000466428
-0.000294459
0.000623262
-0.000194912
0.000801344
-8.57037e-05
0.00101776
1.51906e-05
0.00133261
7.54256e-05
0.00186155
0.000224477
0.00255348
0.000842326
0.00348133
0.00126163
0.00425918
0.00430244
-0.00158005
0.00262212
0.00111522
0.00170342
0.00334776
0.00194634
0.0043514
0.00223832
0.00485673
0.00194852
0.00517272
0.00130934
0.00540159
0.0005188
0.00557914
-0.000307337
0.00567738
-0.00109236
0.00563493
-0.00177183
0.00540128
-0.00229324
0.00496477
-0.00262826
0.00435344
-0.00277384
0.00362046
-0.00274913
0.00282608
-0.00258393
0.00202026
-0.0023016
0.00125055
-0.00194607
0.000546993
-0.00154382
-4.44923e-05
-0.00117343
-0.000481304
-0.000872996
-0.000758997
-0.000675699
-0.00092227
-0.000534956
-0.00101643
-0.000428943
-0.00106477
-0.000337897
-0.00108145
-0.000252442
-0.00107298
-0.000166465
-0.00104335
-7.58062e-05
-0.000996312
2.29101e-05
-0.000934791
0.000131106
-0.00086131
0.000250636
-0.0007795
0.000384619
-0.000692809
0.000536573
-0.000605521
0.000714062
-0.000527481
0.000939723
-0.000480038
0.00128512
-0.000448932
0.00183019
-0.000259531
0.00236354
0.000585523
0.00263573
0.00113606
0.00370813
0.00557789
0.00288382
0.00457206
0.00487118
0.00164722
0.00535803
0.00175146
0.00559561
0.00171094
0.00582777
0.00107718
0.00601453
0.00033203
0.00607902
-0.00037187
0.00595091
-0.000964289
0.0055974
-0.00141835
0.00503143
-0.00172729
0.00430028
-0.00189711
0.00346273
-0.00193628
0.00257806
-0.00186445
0.00170123
-0.00170709
0.000865187
-0.00146555
0.000110422
-0.0011913
-0.000506524
-0.000926865
-0.000945634
-0.000734315
-0.00122255
-0.00059608
-0.00139529
-0.000502975
-0.00149974
-0.000430526
-0.0015614
-0.000367298
-0.00159192
-0.000307383
-0.00159668
-0.000247689
-0.00157808
-0.000185065
-0.00153832
-0.000115552
-0.00148125
-3.41477e-05
-0.00141158
6.14396e-05
-0.00133396
0.000173014
-0.00125529
0.000305954
-0.0011863
0.000467581
-0.00114361
0.000671405
-0.00115067
0.000946859
-0.00122079
0.00135535
-0.0013369
0.00194629
-0.00152009
0.00254639
-0.0017343
0.00284931
-0.00154081
0.0035139
0.0041927
0.00793647
0.00535951
0.00581823
0.00386973
0.00556989
0.00195929
0.00564018
0.00100687
0.00560232
0.000369822
0.00535614
-0.000125755
0.00489047
-0.000498676
0.00424612
-0.000774027
0.0034774
-0.000958575
0.00263797
-0.00105767
0.00177029
-0.00106858
0.000912675
-0.00100682
0.000100055
-0.000894452
-0.000611079
-0.000754402
-0.00116643
-0.000635936
-0.00155641
-0.000536875
-0.00181963
-0.000471104
-0.00199078
-0.00042495
-0.00210634
-0.000387453
-0.00218551
-0.000351393
-0.00223737
-0.000315479
-0.00226523
-0.000279544
-0.00227004
-0.000242875
-0.00225155
-0.00020353
-0.00220903
-0.000158037
-0.00214231
-0.000100831
-0.00205712
-2.37292e-05
-0.00196205
7.79507e-05
-0.00186465
0.000208537
-0.00177708
0.000379989
-0.00171694
0.000611271
-0.00170214
0.000932171
-0.00173715
0.00139064
-0.0018264
0.00203594
-0.00218265
0.00290299
-0.00321624
0.00388312
-0.00349787
0.0037956
0.000866854
0.00412051
0.00148554
0.00452072
0.00346952
0.00374509
0.00273491
0.00323733
0.00151458
0.00288798
0.00071909
0.00251896
0.000243212
0.00206979
-4.95332e-05
0.00152812
-0.000232361
0.000914179
-0.000344614
0.000246651
-0.000390118
-0.000434376
-0.000387538
-0.00107007
-0.000371097
-0.00161179
-0.000352702
-0.00203158
-0.00033459
-0.00234009
-0.000327412
-0.00255508
-0.000321889
-0.00271111
-0.000315111
-0.00283227
-0.000303852
-0.00293093
-0.000288868
-0.00301046
-0.000271943
-0.00307108
-0.000254918
-0.00311195
-0.00023869
-0.0031315
-0.000223304
-0.00312693
-0.000208033
-0.003094
-0.00019087
-0.00302746
-0.000167271
-0.00292259
-0.000128532
-0.00278408
-6.05458e-05
-0.00262782
5.22244e-05
-0.00246701
0.000219085
-0.00230824
0.000452392
-0.00214619
0.000770092
-0.00195134
0.00119594
-0.00167311
0.0017581
-0.0012532
0.00248359
-0.000710986
0.00334137
-0.000216073
0.00330108
0.000830723
-0.0025894
-0.00674639
-0.00740382
-0.00745388
-0.00374704
-0.00217127
-0.00166708
0.00138952
-0.000754064
0.00182184
-0.000557218
0.00131767
-0.000639003
0.000800829
-0.000826694
0.000430877
-0.00106799
0.000191748
-0.00135528
5.49344e-05
-0.00169204
-7.82967e-06
-0.00205436
-2.77632e-05
-0.00241003
-3.18255e-05
-0.00273436
-4.672e-05
-0.0029985
-8.85181e-05
-0.00319135
-0.000141716
-0.00333368
-0.000185091
-0.00345111
-0.000204511
-0.00356188
-0.000204433
-0.00367102
-0.00019482
-0.00377637
-0.000183639
-0.00387325
-0.000175159
-0.00395718
-0.000171036
-0.00402433
-0.000171534
-0.00407081
-0.000176758
-0.00409149
-0.000187224
-0.00407924
-0.000202937
-0.00402555
-0.00022078
-0.00392237
-0.000231544
-0.00376392
-0.000218903
-0.0035518
-0.00015993
-0.00330307
-2.98069e-05
-0.00303136
0.000180443
-0.00271729
0.000455769
-0.00229932
0.00077781
-0.00167394
0.00113275
-0.000697289
0.00150717
0.000604739
0.00203963
0.00132941
0.00257676
0.00234055
-0.00733652
0.00104354
-0.00810976
-0.0066807
-0.00716698
-0.00311411
-0.00564882
-0.000128715
-0.00455608
0.000729031
-0.00396408
0.000725621
-0.00370452
0.000541231
-0.00363751
0.000363858
-0.00367925
0.000233507
-0.00377324
0.000148953
-0.00387685
9.58206e-05
-0.00396204
5.74878e-05
-0.00401937
2.55743e-05
-0.00405845
-7.57353e-06
-0.00409767
-4.92605e-05
-0.00414962
-8.97657e-05
-0.00421868
-0.00011609
-0.00429965
-0.000123651
-0.00438548
-0.000118738
-0.00447044
-0.000110011
-0.00455062
-0.000103593
-0.00462342
-0.000102439
-0.00468707
-0.000107412
-0.00474008
-0.000118476
-0.00478082
-0.000135888
-0.00480708
-0.000160754
-0.0048158
-0.000193951
-0.00480304
-0.000233248
-0.00476403
-0.000270264
-0.00469261
-0.000290115
-0.00457751
-0.000274948
-0.00439833
-0.000209102
-0.00413542
-8.28215e-05
-0.00378043
0.000100326
-0.00329885
0.000295788
-0.00260489
0.000438427
-0.0014952
0.000397296
0.000342233
0.000202181
0.00147713
0.00144199
0.00400214
0.00158517
-0.00503098
-0.008082
-0.00815131
-0.00736787
-0.00659553
-0.00601416
-0.00561484
-0.00534889
-0.00516919
-0.00504332
-0.00495572
-0.00489949
-0.00487574
-0.00489329
-0.00495122
-0.00503549
-0.00512736
-0.0052143
-0.00529249
-0.00536424
-0.00543488
-0.00551065
-0.0055978
-0.00570289
-0.00583362
-0.00599859
-0.00620412
-0.00644813
-0.00671351
-0.00696515
-0.00715217
-0.00721387
-0.00709315
-0.00677752
-0.0063198
-0.00590385
-0.0056838
-0.00422477
)
;

boundaryField
{
    floor
    {
        type            calculated;
        value           nonuniform List<scalar> 
36
(
0
0
0
0
0
0
0
0
0
0
0
0
0
0
0
0
0
0
0
-6.43908e-06
-1.68828e-05
-2.60259e-05
-3.42925e-05
-3.48955e-05
-2.85541e-05
-2.85107e-05
-2.92056e-06
-5.44227e-06
-5.68862e-06
-5.90864e-06
-4.85471e-06
-8.93974e-06
-1.02087e-05
-1.28323e-05
-1.44557e-05
-1.54453e-05
)
;
    }
    ceiling
    {
        type            calculated;
        value           nonuniform List<scalar> 
43
(
-5.77974e-05
-6.46083e-05
-6.31764e-05
-5.94913e-05
-5.44874e-05
-4.67844e-05
-4.01796e-05
-3.54582e-05
-3.24132e-05
-3.06809e-05
-2.99558e-05
-3.00123e-05
-3.05801e-05
-3.12628e-05
-3.16986e-05
-3.18699e-05
-3.18982e-05
-3.19004e-05
-3.19186e-05
-3.19414e-05
-3.1932e-05
-3.18438e-05
-3.16276e-05
-3.12373e-05
-3.06342e-05
-2.97936e-05
-2.87123e-05
-2.74216e-05
-2.60009e-05
-2.45752e-05
-2.32819e-05
-2.22178e-05
-2.14047e-05
-2.07878e-05
-2.02455e-05
-1.96324e-05
-1.88648e-05
-1.79555e-05
-1.7019e-05
-1.67069e-05
1.93341e-05
1.51841e-05
-0.000246545
)
;
    }
    sWall
    {
        type            calculated;
        value           nonuniform List<scalar> 9(-0.000140238 -0.000164531 -0.00019427 -0.000225977 -0.000245094 -0.000281034 -0.000423402 -0.00045345 -0.000483839);
    }
    nWall
    {
        type            calculated;
        value           nonuniform List<scalar> 
14
(
-8.9851e-05
-9.71451e-05
-0.000102356
-0.00010322
-0.000114793
-0.000123356
-0.000129532
-0.000139968
-0.000156149
-0.000172121
-0.000179327
-0.000180172
-0.000184376
-0.000205848
)
;
    }
    sideWalls
    {
        type            empty;
        value           nonuniform 0();
    }
    glass1
    {
        type            calculated;
        value           nonuniform List<scalar> 9(-6.4034e-05 -0.00017032 -0.000257921 -0.000331204 -0.000393186 -0.000446389 -0.000492198 -0.000535478 -0.000587164);
    }
    glass2
    {
        type            calculated;
        value           nonuniform List<scalar> 2(-0.00036543 -0.000382416);
    }
    sun
    {
        type            calculated;
        value           uniform 0;
    }
    Table_master
    {
        type            calculated;
        value           nonuniform List<scalar> 9(-1.53991e-07 -1.54108e-07 -1.5414e-07 -1.5416e-07 -1.54173e-07 -1.54178e-07 -1.54177e-07 -1.54162e-07 -1.54109e-07);
    }
    Table_slave
    {
        type            calculated;
        value           nonuniform List<scalar> 9(1.53661e-07 1.53717e-07 1.53716e-07 1.53733e-07 1.53753e-07 1.53797e-07 1.53864e-07 1.53957e-07 1.54084e-07);
    }
    inlet
    {
        type            calculated;
        value           uniform -0.0116487;
    }
    outlet
    {
        type            calculated;
        value           nonuniform List<scalar> 2(0.00975917 0.0122683);
    }
}


// ************************************************************************* //
