/*--------------------------------*- C++ -*----------------------------------*\
  =========                 |
  \\      /  F ield         | OpenFOAM: The Open Source CFD Toolbox
   \\    /   O peration     | Website:  https://openfoam.org
    \\  /    A nd           | Version:  6
     \\/     M anipulation  |
\*---------------------------------------------------------------------------*/
FoamFile
{
    version     2.0;
    format      ascii;
    class       volScalarField;
    location    "600";
    object      alphat;
}
// * * * * * * * * * * * * * * * * * * * * * * * * * * * * * * * * * * * * * //

dimensions      [1 -1 -1 0 0 0 0];

internalField   nonuniform List<scalar> 
778
(
0.00104106
0.0010646
0.00092453
0.000937631
0.00095879
0.000979344
0.00099896
0.00101839
0.00103908
0.00105598
0.00106793
0.00107466
0.00107823
0.00108502
0.00110019
0.000627773
0.000665221
0.000631608
0.000596422
0.000529186
0.000462059
0.000431594
0.000423469
0.000426767
0.000438707
0.000459984
0.000495055
0.000552976
0.000642949
0.000770198
0.000839693
0.000809453
0.000716728
0.00178717
0.0034777
0.00242542
0.00337819
0.00366366
0.00386751
0.00404988
0.00418268
0.00422833
0.00421782
0.00411114
0.00386938
0.00344437
0.0027872
0.00195383
0.00121788
0.0011985
0.00124322
0.000836042
0.00232558
0.0024162
0.00225618
0.00174483
0.00100698
0.000929082
0.000937868
0.000925384
0.000866742
0.000793908
0.000778454
0.000899084
0.0011716
0.00157107
0.00161558
0.00157763
0.000751953
0.00240599
0.00560396
0.00255664
0.00458675
0.00561293
0.00590612
0.00606733
0.00616103
0.00617978
0.00613952
0.00602028
0.00579426
0.005432
0.00492385
0.00432424
0.00366889
0.00262082
0.00148305
0.000985761
0.00198074
0.00230758
0.00276341
0.00267359
0.000699637
0.000541127
0.000460295
0.000404281
0.000369873
0.000384165
0.000504081
0.000718328
0.000925584
0.00159036
0.00160296
0.00152312
0.00112593
0.00296696
0.00804688
0.0029282
0.00454985
0.0065784
0.00705144
0.00717816
0.00722568
0.00722344
0.00718181
0.0071017
0.00696019
0.00672237
0.00634653
0.00578056
0.00494897
0.00381555
0.00270971
0.00169244
0.00375491
0.00353798
0.00402191
0.00445969
0.00397839
0.000979366
0.000911474
0.000887687
0.000874674
0.000865807
0.000858976
0.000852995
0.000846924
0.000844463
0.00152042
0.0021452
0.00266593
0.00139404
0.0034706
0.0105406
0.00367621
0.00403357
0.00679237
0.00754862
0.00764399
0.00762542
0.0075799
0.00752093
0.00746977
0.00741953
0.0073577
0.00727209
0.00714091
0.00692834
0.00664712
0.00644222
0.00650282
0.00653282
0.00635665
0.0065449
0.00674492
0.00652079
0.00551035
0.00519787
0.00504876
0.00495969
0.00489996
0.00485813
0.0048289
0.00480921
0.00479495
0.0048303
0.0046773
0.00387774
0.00365959
0.00150866
0.00148529
0.00141025
0.00391959
0.01277
0.00468594
0.00353352
0.00650284
0.00759336
0.00766758
0.00756889
0.00745809
0.00736201
0.00730037
0.00727246
0.00727238
0.00730114
0.00736463
0.00747201
0.00765259
0.00792907
0.00824822
0.00852974
0.00862348
0.00852144
0.00833127
0.00800397
0.00759094
0.00732552
0.00716806
0.0070792
0.0070346
0.00701989
0.00702575
0.00704445
0.00706427
0.00705498
0.00688967
0.00622194
0.00461831
0.00330487
0.00378816
0.00164455
0.00434616
0.0143622
0.00585132
0.00325361
0.00591421
0.00734222
0.00743074
0.00726406
0.00709535
0.00697244
0.00689847
0.0068702
0.00687537
0.00691265
0.00699561
0.00714567
0.00738633
0.00773286
0.0081385
0.00847116
0.00863029
0.00858208
0.00838192
0.00814397
0.00792794
0.00777687
0.00769154
0.00766026
0.00767093
0.00771377
0.00778074
0.00786335
0.00794492
0.00797291
0.00777376
0.00687341
0.00460675
0.00249025
0.00430951
0.0020245
0.00465408
0.0153615
0.00720235
0.00334407
0.00502011
0.00683532
0.00706425
0.00686888
0.0066642
0.00653324
0.00646567
0.00644768
0.00645194
0.00646868
0.00651729
0.00662443
0.00678747
0.0070143
0.00731942
0.00759505
0.0077555
0.00775657
0.00765272
0.00753378
0.00743567
0.00737838
0.00736769
0.00740165
0.00747556
0.00758403
0.00772122
0.00787866
0.00803289
0.00809397
0.00774562
0.00621572
0.00330597
0.00239583
0.00639326
0.0027585
0.00468801
0.0140213
0.00913387
0.00420757
0.00371492
0.00576852
0.00655246
0.00645379
0.00624124
0.0061189
0.00608039
0.00609764
0.0061158
0.00610898
0.00611085
0.00617568
0.00627229
0.00638703
0.00659493
0.00678724
0.00688858
0.00688843
0.00684259
0.00678851
0.00674963
0.00674058
0.00676909
0.00683842
0.00694922
0.0071005
0.00728955
0.00750908
0.00772856
0.00780847
0.00724384
0.00513059
0.0025872
0.0032178
0.00893324
0.00308382
0.00450458
0.0112195
0.00932487
0.00595786
0.00364
0.00421383
0.00559906
0.00594817
0.00582489
0.00573466
0.00574723
0.00583585
0.00589707
0.00587077
0.0058104
0.00584014
0.00590535
0.00595482
0.00613832
0.00630046
0.00635849
0.00634658
0.00630549
0.00626259
0.00623418
0.00623028
0.00625781
0.0063224
0.00642892
0.00658135
0.00678214
0.00702857
0.00728811
0.0073746
0.00659869
0.00427518
0.00262566
0.00528561
0.00779583
0.00311917
0.00412632
0.00972146
0.00899205
0.00681971
0.00475141
0.0036379
0.00408767
0.00507015
0.00530241
0.00534269
0.00543493
0.00564228
0.00579388
0.00576455
0.00561684
0.00560276
0.00565957
0.00566969
0.00589014
0.00607791
0.00613327
0.00610593
0.00605143
0.00600066
0.00596481
0.00594787
0.00595362
0.00598786
0.00605805
0.00617253
0.00633964
0.00656402
0.00681964
0.00689773
0.0059871
0.00388252
0.00334897
0.00559543
0.00753904
0.0030735
0.00370912
0.00897627
0.00874459
0.00724977
0.00564165
0.00438382
0.00379284
0.00394459
0.00442673
0.00483229
0.00510637
0.00547758
0.00578009
0.00578943
0.00553155
0.00544632
0.00550504
0.00548118
0.00578114
0.00603702
0.00610419
0.00605656
0.00598657
0.00593019
0.00588848
0.00585629
0.00583375
0.00582674
0.00584394
0.00589537
0.00599203
0.00614329
0.0063348
0.00638411
0.0055251
0.00390025
0.0038791
0.00577761
0.00768899
0.00298902
0.00339395
0.0084123
0.00862677
0.00756362
0.00633146
0.00521381
0.00440444
0.00401996
0.00402696
0.004309
0.00476417
0.00529828
0.0057941
0.00591821
0.00555788
0.00535981
0.00542
0.00535824
0.00576769
0.0061302
0.00620377
0.00612548
0.0060473
0.00599811
0.00595585
0.005905
0.00584766
0.00579378
0.00575281
0.00573238
0.0057387
0.00577451
0.00582786
0.00577974
0.00502607
0.00386698
0.00432752
0.00599493
0.00782649
0.00291216
0.00343373
0.00838479
0.00895112
0.00788741
0.00685355
0.00589688
0.00510252
0.00456189
0.00431531
0.00436026
0.00466355
0.0051986
0.00581117
0.00607505
0.00568885
0.00533806
0.00538686
0.00527698
0.00583101
0.00633721
0.00639596
0.00627841
0.00621546
0.00619136
0.00614388
0.00605806
0.0059542
0.00585305
0.00576315
0.00568345
0.00560413
0.00550139
0.00534048
0.00508314
0.00439278
0.00384259
0.00469707
0.00621232
0.00778582
0.00286973
0.00309335
0.00333173
0.00512657
0.00609944
0.00624842
0.00593598
0.00545685
0.00501504
0.00472963
0.00465699
0.00482366
0.00526087
0.00590956
0.0062738
0.00587082
0.00536296
0.0053961
0.00521302
0.00596277
0.00665521
0.00665714
0.00650586
0.00650076
0.0065079
0.00642284
0.00626959
0.00611184
0.00598215
0.00587841
0.00577913
0.00564365
0.00540504
0.00499972
0.004466
0.00405051
0.00423097
0.00520412
0.00675515
0.00857637
0.00292479
0.0017841
0.0034915
0.00488613
0.00542206
0.00543799
0.00525986
0.0050846
0.00502077
0.00514305
0.00552335
0.00616158
0.00655249
0.00610237
0.00540797
0.0054469
0.00513613
0.00615966
0.00709713
0.00696888
0.00681865
0.00692142
0.00692398
0.00673168
0.00648395
0.00630519
0.00621172
0.00616189
0.00609663
0.00594574
0.00565046
0.00523517
0.00486249
0.00475381
0.00509728
0.00606145
0.00788971
0.00924618
0.0031665
0.00218212
0.00367054
0.00480002
0.0054251
0.00563055
0.00563253
0.0055866
0.00559836
0.005757
0.0061419
0.00669224
0.00701584
0.00645778
0.00546848
0.00554895
0.00499762
0.00641386
0.0076903
0.00731556
0.00722235
0.00749991
0.00742764
0.00704396
0.0067363
0.00666312
0.00674189
0.00683975
0.00685567
0.00674012
0.00651506
0.00626901
0.00610749
0.00609383
0.0064344
0.00734288
0.00944763
0.00973381
0.00330979
0.00331592
0.00568533
0.00421204
0.00478912
0.00574961
0.00626708
0.00641115
0.00647986
0.00652376
0.00660549
0.00681215
0.00722099
0.00782499
0.00820305
0.00721873
0.00553305
0.00568886
0.00469462
0.00661976
0.00841548
0.00750994
0.007615
0.00826623
0.00802977
0.00737893
0.00716901
0.00748073
0.00798704
0.00833901
0.00837947
0.00816878
0.00786756
0.00761362
0.00748044
0.00750968
0.00781943
0.00865338
0.0107556
0.0104894
0.00337292
0.00330881
0.00551218
0.00741076
0.00751051
0.0078085
0.00795522
0.00790831
0.00799909
0.00816571
0.00841382
0.00873047
0.009008
0.00906667
0.00877539
0.00762265
0.00537025
0.00543521
0.00418039
0.00646601
0.0080794
0.00710226
0.00744695
0.00828921
0.00792784
0.00719361
0.00716793
0.00781102
0.00859817
0.00910706
0.00921416
0.00904151
0.00878906
0.008605
0.00855696
0.00866238
0.00891293
0.00931776
0.0103729
0.0104808
0.00325089
0.00311674
0.00279492
0.00284704
0.00294178
0.00293728
0.00286482
0.00277918
0.00267703
0.00260819
0.0025541
0.00250492
0.00246557
0.00246154
0.00247034
0.00236106
0.0022213
0.00208266
0.0020243
0.00229848
0.00252605
0.00227067
0.00227575
0.00230402
0.0022838
0.00226613
0.0022981
0.00235797
0.00241572
0.00245805
0.00248572
0.00250859
0.00253882
0.00258505
0.00265107
0.00273785
0.00284553
0.00297503
0.00312986
0.00330367
0.003012
)
;

boundaryField
{
    floor
    {
        type            compressible::alphatWallFunction;
        Prt             0.85;
        value           nonuniform List<scalar> 
36
(
0.000155956
8.81791e-05
9.37426e-05
8.87744e-05
8.35333e-05
7.33882e-05
6.30902e-05
5.83513e-05
5.70755e-05
5.75833e-05
5.9436e-05
6.27245e-05
6.81035e-05
7.68911e-05
9.03458e-05
0.000109037
0.000119097
0.000114753
0.00010129
0.000101288
0.000106426
0.000159401
0.000196179
0.000211659
0.000208497
0.000198383
0.000155954
0.000172232
0.000169562
0.000175717
8.8178e-05
0.000175715
0.000118586
0.000208305
0.000139944
0.000236324
)
;
    }
    ceiling
    {
        type            compressible::alphatWallFunction;
        Prt             0.85;
        value           nonuniform List<scalar> 
43
(
0.000418736
0.000378443
0.000384979
0.000396849
0.000396307
0.000387257
0.000376522
0.000363666
0.000354962
0.0003481
0.000341842
0.000336855
0.000336374
0.000337427
0.00032337
0.00030535
0.000287514
0.000280085
0.000315541
0.00034439
0.000311952
0.000312553
0.000316214
0.000313653
0.000311303
0.000315307
0.000322946
0.000330353
0.000335809
0.00033939
0.00034233
0.000346164
0.000351988
0.00036028
0.000371145
0.000384587
0.000400697
0.000419894
0.000441403
0.000405195
0.000415996
0.0004455
0.000300082
)
;
    }
    sWall
    {
        type            compressible::alphatWallFunction;
        Prt             0.85;
        value           nonuniform List<scalar> 9(0.000586166 0.000540698 0.000490062 0.000451431 0.000456314 0.000414245 0.000441345 0.000440517 0.000416896);
    }
    nWall
    {
        type            compressible::alphatWallFunction;
        Prt             0.85;
        value           nonuniform List<scalar> 
14
(
0.000197765
0.000229167
0.000279082
0.000418055
0.000412382
0.000401834
0.000392206
0.00038697
0.000394026
0.000424245
0.00044171
0.000449159
0.000433753
0.000404326
)
;
    }
    sideWalls
    {
        type            empty;
    }
    glass1
    {
        type            compressible::alphatWallFunction;
        Prt             0.85;
        value           nonuniform List<scalar> 9(0.000142776 0.000241939 0.000321051 0.000391116 0.00045299 0.000507469 0.000558685 0.000595415 0.000599643);
    }
    glass2
    {
        type            compressible::alphatWallFunction;
        Prt             0.85;
        value           nonuniform List<scalar> 2(0.000368509 0.000409099);
    }
    sun
    {
        type            compressible::alphatWallFunction;
        Prt             0.85;
        value           nonuniform List<scalar> 
14
(
0.000147714
0.000150974
0.000131257
0.00013312
0.00013612
0.000139026
0.000141792
0.000144525
0.000147429
0.000149795
0.000151466
0.000152403
0.0001529
0.000153844
)
;
    }
    Table_master
    {
        type            compressible::alphatWallFunction;
        Prt             0.85;
        value           nonuniform List<scalar> 9(9.94072e-05 7.57246e-05 6.33125e-05 5.45463e-05 4.90633e-05 5.12396e-05 6.97852e-05 0.00010186 0.000131864);
    }
    Table_slave
    {
        type            compressible::alphatWallFunction;
        Prt             0.85;
        value           nonuniform List<scalar> 9(0.000139616 0.00012997 0.000126565 0.000124697 0.000123422 0.000122437 0.000121572 0.00012069 0.000120319);
    }
    inlet
    {
        type            fixedValue;
        value           uniform 1.94e-05;
    }
    outlet
    {
        type            zeroGradient;
    }
}


// ************************************************************************* //
