/*--------------------------------*- C++ -*----------------------------------*\
  =========                 |
  \\      /  F ield         | OpenFOAM: The Open Source CFD Toolbox
   \\    /   O peration     | Website:  https://openfoam.org
    \\  /    A nd           | Version:  6
     \\/     M anipulation  |
\*---------------------------------------------------------------------------*/
FoamFile
{
    version     2.0;
    format      ascii;
    class       volScalarField;
    location    "600";
    object      alphat;
}
// * * * * * * * * * * * * * * * * * * * * * * * * * * * * * * * * * * * * * //

dimensions      [1 -1 -1 0 0 0 0];

internalField   nonuniform List<scalar> 
778
(
0.000878245
0.000901176
0.00151021
0.000644074
0.00234114
0.00213246
0.000654116
0.00124945
0.00437919
0.00268781
0.000679408
0.0018597
0.00132041
0.0066583
0.00318114
0.000705025
0.00197293
0.00239393
0.00171671
0.00897562
0.00361541
0.000730246
0.00206628
0.00277488
0.00238685
0.00239561
0.0110459
0.00402121
0.000755504
0.00215985
0.00287918
0.00327473
0.00208448
0.00327584
0.0125229
0.00432956
0.000781726
0.00224301
0.0029724
0.00342223
0.00348847
0.00176808
0.00428147
0.0135062
0.00437455
0.000810432
0.00230536
0.00305786
0.00351775
0.00372657
0.00343112
0.00159887
0.0055233
0.0128374
0.00422618
0.000837873
0.00233499
0.00312865
0.0036105
0.00381297
0.0038014
0.00316847
0.00170619
0.00780903
0.0104439
0.00390608
0.000863294
0.00233753
0.00317733
0.00369625
0.00389315
0.00385139
0.00371673
0.00272156
0.00255434
0.0082863
0.0091044
0.00353997
0.000888268
0.00228993
0.00320581
0.00376734
0.0039741
0.00387232
0.00372616
0.00354642
0.00192675
0.0046013
0.00812362
0.00838575
0.00324969
0.00091672
0.0021607
0.00319847
0.00382091
0.00405404
0.00389063
0.0036739
0.00354598
0.00316873
0.00196607
0.00568526
0.0079739
0.00796727
0.00323779
0.000949945
0.00190014
0.00313644
0.00385749
0.00412861
0.00391496
0.00361681
0.00342799
0.00336242
0.00216252
0.00333505
0.00628228
0.00800955
0.00812595
0.00294376
0.00149851
0.00299902
0.00386352
0.00421978
0.0039536
0.00357527
0.00330493
0.0032069
0.00302791
0.00192672
0.00446137
0.0067601
0.00833926
0.00323854
0.00110008
0.00278911
0.0038179
0.00433852
0.00401888
0.00356657
0.00320847
0.00302385
0.00302416
0.00213431
0.00296217
0.00536026
0.00716864
0.00362983
0.00109195
0.00251533
0.00369052
0.00449119
0.00413241
0.00359671
0.00315977
0.00287587
0.00280822
0.00264529
0.00204408
0.00405327
0.00601964
0.00443173
0.000235204
0.00108542
0.0020367
0.00342297
0.00468227
0.00430302
0.00368593
0.00316559
0.0027882
0.00260887
0.00262672
0.0018073
0.00299473
0.0049175
0.0047244
0.000186482
0.00332207
0.00137927
0.00292687
0.00491048
0.00453692
0.00384069
0.00323944
0.00277925
0.00247973
0.00242648
0.00207748
0.00227719
0.00393143
0.00452903
0.000570389
0.000296462
0.0021911
0.00225949
0.00518548
0.00483897
0.00406358
0.00338746
0.00284294
0.00244676
0.00224871
0.00219734
0.00190112
0.00313345
0.00406361
0.00139287
0.000401882
0.000243402
0.00222728
0.000934721
0.00163932
0.00557536
0.00522073
0.00435361
0.00361066
0.00299061
0.00250177
0.00218133
0.00209484
0.00178921
0.00256296
0.0035267
0.0021182
0.000882653
0.000350445
0.000520885
0.00205457
0.00140802
0.00154503
0.00573442
0.00615987
0.00570066
0.00470809
0.00390323
0.00322504
0.00264855
0.00223266
0.00200286
0.00184264
0.00222325
0.00304858
0.00246989
0.00146198
0.000801808
0.000757813
0.00154021
0.00180795
0.00175702
0.00135811
0.00629213
0.00707702
0.00626269
0.00512436
0.00424781
0.00354288
0.00289143
0.00237771
0.00206894
0.00193557
0.00209945
0.00269961
0.00253549
0.00188108
0.00129344
0.00128677
0.00157463
0.00225405
0.000873995
0.00352964
0.00601292
0.00743078
0.00678655
0.00559228
0.0046216
0.00391654
0.00324188
0.00261492
0.00221363
0.00205003
0.00212255
0.00250366
0.00247597
0.00209491
0.00168793
0.0019295
0.00164459
0.00052931
0.00121507
0.00340076
0.00514624
0.00734472
0.00715675
0.00607591
0.00502221
0.00429228
0.00367524
0.00298482
0.00242688
0.00218319
0.00218787
0.00243216
0.00239769
0.00217
0.00195346
0.00242912
0.00170354
0.000514117
0.00146822
0.0029956
0.00382232
0.00686147
0.00729692
0.00651072
0.0054761
0.00464961
0.00409729
0.00348861
0.00278908
0.00236136
0.00226024
0.00237407
0.00233964
0.00218227
0.00213423
0.00292695
0.00172485
0.000479669
0.00163013
0.00244263
0.000923129
0.0059446
0.00716074
0.00679052
0.0059504
0.00506613
0.004434
0.00399361
0.00334849
0.00269455
0.0023971
0.00236413
0.00230826
0.00218654
0.00231381
0.00340257
0.00174336
0.000437438
0.00162782
0.000676074
0.000786997
0.0047038
0.00668769
0.0068446
0.00629598
0.00558058
0.00480139
0.00433413
0.00395352
0.00327523
0.00271533
0.00248128
0.00236359
0.00225632
0.00258907
0.00391394
0.0017553
0.000408046
0.00133165
0.00057095
0.000691958
0.00409708
0.00608173
0.00660289
0.00641434
0.00596488
0.00536463
0.00463542
0.00432158
0.003965
0.00331832
0.0028323
0.00259122
0.00250951
0.00305506
0.00450867
0.00176572
0.000392649
0.00123556
0.000511828
0.000619931
0.00361237
0.00558554
0.00626003
0.00626538
0.00607497
0.00578378
0.00524913
0.00454079
0.00437427
0.00406562
0.00350077
0.00308348
0.00298137
0.00370071
0.00515601
0.00177568
0.000389607
0.00121829
0.00047
0.000556575
0.00313244
0.00516656
0.00593845
0.00604013
0.00593695
0.00585948
0.00569885
0.00519731
0.00450297
0.00448605
0.00430429
0.00388168
0.003707
0.00446585
0.0056881
0.00179283
0.000381823
0.00113823
0.0004353
0.000496077
0.00263838
0.00473525
0.00565905
0.00581887
0.00574011
0.00569926
0.00574039
0.00566528
0.00518104
0.00449303
0.0046738
0.00472701
0.00462998
0.00526433
0.00602884
0.00181535
0.000368774
0.000944192
0.000401776
0.000524462
0.00211121
0.00427173
0.00540118
0.00562675
0.00554834
0.00548227
0.00554513
0.00567464
0.00566592
0.00520376
0.00448044
0.00493324
0.00539991
0.00602462
0.00625449
0.00184437
0.00034977
0.000705503
0.000371894
0.00061784
0.00178061
0.00376563
0.00511836
0.00546364
0.00538461
0.005276
0.00529033
0.00543642
0.00562348
0.00570078
0.00527484
0.00441946
0.00521494
0.00635216
0.00644497
0.00187082
0.000329245
0.000496587
0.000498174
0.000730153
0.00155845
0.00332052
0.00480505
0.00531523
0.0052527
0.00510342
0.00505426
0.00514659
0.00533796
0.00556038
0.00576638
0.00540163
0.0042399
0.00535991
0.00634718
0.0018899
0.000315033
0.000419826
0.000732729
0.00141405
0.00143319
0.00296258
0.00450103
0.00516335
0.00514724
0.00496772
0.00486075
0.0048897
0.00503333
0.00523907
0.0054708
0.00585817
0.00560144
0.00385983
0.00497913
0.00188941
0.000324504
0.000664116
0.00117483
0.00147672
0.0016602
0.00271389
0.00426038
0.00501336
0.00505942
0.00486467
0.00471082
0.00468576
0.00478344
0.00496458
0.00517228
0.00536474
0.00595321
0.00585299
0.00324677
0.00183171
0.000474853
0.00128959
0.00108849
0.00163551
0.00186214
0.00273982
0.00413826
0.00489089
0.00498464
0.00478845
0.00459838
0.00453069
0.00459429
0.00476302
0.00500738
0.00523746
0.00531811
0.00593101
0.00548201
0.00171868
0.000560348
0.00151819
0.00103838
0.00118502
0.00193036
0.002817
0.00407603
0.00480104
0.00492679
0.0047354
0.00451662
0.00441417
0.00445291
0.00461411
0.00489778
0.00529941
0.0056044
0.00532799
0.00527262
0.00175584
0.000591363
0.00185033
0.000912689
0.00224587
0.00281
0.00399358
0.00471617
0.00488338
0.00470551
0.00446138
0.0043254
0.00434294
0.00449615
0.00479391
0.00530022
0.00602173
0.00639182
0.00499622
0.00176701
0.000585204
0.000692912
0.00119233
0.00225073
0.00361005
0.00446561
0.00478652
0.00468517
0.00443207
0.00425589
0.00424622
0.00438859
0.00467776
0.00520426
0.00612118
0.00744655
0.00652872
0.00182112
0.000525661
0.00129514
0.00177309
0.00242508
0.00359703
0.00433921
0.00455278
0.00440985
0.00420342
0.00414479
0.00426592
0.00453781
0.00503471
0.00595955
0.00758233
0.00769909
0.00191709
0.00124138
0.00283572
0.00142858
0.00196374
0.00309112
0.00388384
0.00421863
0.00415365
0.00403324
0.00409983
0.00435445
0.00482136
0.00567904
0.00718644
0.00785935
0.00198641
0.00145948
0.00344789
0.00169242
0.00172057
0.0026088
0.00337299
0.00389255
0.00391859
0.00388395
0.00410268
0.00457617
0.0053915
0.00669515
0.0074765
0.00198781
0.00182915
0.0053985
0.00247943
0.00191583
0.00252781
0.0029872
0.00358814
0.00365662
0.00377834
0.0042991
0.00513275
0.00630688
0.0069761
0.00196155
0.00251929
0.00774956
0.00472027
0.00275682
0.00271141
0.00282664
0.00322003
0.00341362
0.0040031
0.00489663
0.0060026
0.00660925
0.00194417
0.00282343
0.00667369
0.00488334
0.00336875
0.00311692
0.00269358
0.00296036
0.00372441
0.00468139
0.00572902
0.00634704
0.00194154
0.00284386
0.00693375
0.0051398
0.00386651
0.00341998
0.00287236
0.00348
0.00450868
0.00548348
0.00612764
0.00195727
0.00281554
0.00725602
0.0054118
0.00413541
0.00356434
0.00340983
0.00439372
0.00530885
0.00596127
0.00199361
0.00288918
0.00737453
0.00506662
0.00428402
0.00381795
0.00437882
0.00525424
0.00591807
0.00205395
0.00284172
0.00593911
0.00494806
0.00451409
0.00461325
0.005343
0.00607323
0.00213907
0.00264014
0.00536041
0.00524888
0.00517977
0.00566947
0.0064491
0.00224479
0.00249438
0.00629838
0.00626267
0.00640797
0.00696316
0.00236473
0.00266028
0.00715702
0.00798287
0.00762943
0.00249544
0.00279608
0.00842848
0.00882095
0.00264185
0.00291573
0.00888025
0.0027997
0.0029981
0.00296069
0.00278242
)
;

boundaryField
{
    floor
    {
        type            compressible::alphatWallFunction;
        Prt             0.85;
        value           nonuniform List<scalar> 
36
(
0.000134983
7.35488e-05
7.12261e-05
6.59316e-05
5.93562e-05
5.47425e-05
5.23077e-05
5.18357e-05
5.0612e-05
4.85464e-05
4.55169e-05
4.22175e-05
3.99115e-05
4.14267e-05
6.50784e-05
7.81382e-05
8.2798e-05
8.18744e-05
7.28907e-05
7.28898e-05
9.78907e-05
0.000129608
0.000167803
0.0001688
0.000182941
0.00017558
0.000134981
0.000156057
0.000154927
0.000154033
7.35479e-05
0.000154031
0.000124278
0.000194401
0.000191542
0.000229319
)
;
    }
    ceiling
    {
        type            compressible::alphatWallFunction;
        Prt             0.85;
        value           nonuniform List<scalar> 
43
(
0.000309867
0.000245075
0.00021686
0.000216215
0.000220842
0.000230199
0.000238048
0.000240886
0.000243341
0.000244924
0.000246303
0.000247619
0.000249881
0.000252852
0.000256673
0.000260149
0.000262648
0.000262574
0.000254988
0.000240099
0.00024507
0.000246469
0.000253488
0.000266071
0.000275158
0.000275507
0.000272094
0.00026983
0.000269464
0.000271473
0.000276142
0.000283905
0.000294867
0.000308479
0.000323889
0.000340597
0.000359177
0.000379173
0.000399452
0.00037703
0.00039751
0.000434161
0.000443756
)
;
    }
    sWall
    {
        type            compressible::alphatWallFunction;
        Prt             0.85;
        value           nonuniform List<scalar> 9(0.000552999 0.000514291 0.000469626 0.00043388 0.0004324 0.000395854 0.00028224 0.000250067 0.000308154);
    }
    nWall
    {
        type            compressible::alphatWallFunction;
        Prt             0.85;
        value           nonuniform List<scalar> 
14
(
0.000175058
0.000204707
0.000253879
0.000384033
0.000380521
0.000389725
0.000383073
0.000357864
0.000339708
0.000361289
0.000377982
0.000392978
0.000403216
0.000376256
)
;
    }
    sideWalls
    {
        type            empty;
    }
    glass1
    {
        type            compressible::alphatWallFunction;
        Prt             0.85;
        value           nonuniform List<scalar> 9(0.000120905 0.000206626 0.00028745 0.000357643 0.00041885 0.000472001 0.000521118 0.000558159 0.000563701);
    }
    glass2
    {
        type            compressible::alphatWallFunction;
        Prt             0.85;
        value           nonuniform List<scalar> 2(0.00033979 0.00037807);
    }
    sun
    {
        type            compressible::alphatWallFunction;
        Prt             0.85;
        value           nonuniform List<scalar> 
14
(
0.000124811
0.000128046
9.0718e-05
9.22085e-05
9.5945e-05
9.97118e-05
0.000103404
0.000107086
0.000110894
0.000115044
0.000118995
0.000122642
0.000126213
0.000130267
)
;
    }
    Table_master
    {
        type            compressible::alphatWallFunction;
        Prt             0.85;
        value           nonuniform List<scalar> 9(9.58197e-05 8.01541e-05 7.11864e-05 6.47628e-05 5.93802e-05 5.41286e-05 4.93771e-05 6.89133e-05 0.000104086);
    }
    Table_slave
    {
        type            compressible::alphatWallFunction;
        Prt             0.85;
        value           nonuniform List<scalar> 9(0.000131545 0.000112011 9.81372e-05 8.74695e-05 7.79598e-05 6.8754e-05 7.3115e-05 8.7204e-05 0.000103778);
    }
    inlet
    {
        type            fixedValue;
        value           uniform 1.94e-05;
    }
    outlet
    {
        type            zeroGradient;
    }
}


// ************************************************************************* //
