/*--------------------------------*- C++ -*----------------------------------*\
  =========                 |
  \\      /  F ield         | OpenFOAM: The Open Source CFD Toolbox
   \\    /   O peration     | Website:  https://openfoam.org
    \\  /    A nd           | Version:  6
     \\/     M anipulation  |
\*---------------------------------------------------------------------------*/
FoamFile
{
    version     2.0;
    format      ascii;
    class       volScalarField;
    location    "600";
    object      alphat;
}
// * * * * * * * * * * * * * * * * * * * * * * * * * * * * * * * * * * * * * //

dimensions      [1 -1 -1 0 0 0 0];

internalField   nonuniform List<scalar> 
458
(
0.00132389
0.00144665
0.00148443
0.00155867
0.00162869
0.00169752
0.00177042
0.00183627
0.00188616
0.00190947
0.00189534
0.00182976
0.00161909
0.00137015
0.00115463
0.000608668
0.000714447
0.000808294
0.000840176
0.000825797
0.000774587
0.000718522
0.000668142
0.000624196
0.00058578
0.000552061
0.000522467
0.000496011
0.000471727
0.000448536
0.000425103
0.000410745
0.00037763
0.00176826
0.00404088
0.00375574
0.00431032
0.00486988
0.00541969
0.00583798
0.00625393
0.00666923
0.00703374
0.00729821
0.0074118
0.00724548
0.00647489
0.00418895
0.00143751
0.00124352
0.00104438
0.000600668
0.00151993
0.00223782
0.00277475
0.00289541
0.00206773
0.00173846
0.00152103
0.00136245
0.00124149
0.00114529
0.00105897
0.000977139
0.000894316
0.000819777
0.000756583
0.000921364
0.000492592
0.00213335
0.00538094
0.00446415
0.00532033
0.00565276
0.00588851
0.00608742
0.00636064
0.00672556
0.00716771
0.00765604
0.0081145
0.00836097
0.00803084
0.00696721
0.00518392
0.00377123
0.00116714
0.000873891
0.00167237
0.00252193
0.00331956
0.00344827
0.00102191
0.000893108
0.000786605
0.000700912
0.000632182
0.000576789
0.00053219
0.000496477
0.000469348
0.000525283
0.000613989
0.00108351
0.000580952
0.00247981
0.00676915
0.00431433
0.00537877
0.00544658
0.00539151
0.00544398
0.00564899
0.00599823
0.00649974
0.00713051
0.00776598
0.0081727
0.00811481
0.00764649
0.00671169
0.00529117
0.00272675
0.00128697
0.00189917
0.00278585
0.00378683
0.00455138
0.00444311
0.00113815
0.00104271
0.000978363
0.000930456
0.000888862
0.000847579
0.00080789
0.000765682
0.000716149
0.000670047
0.000670993
0.00130439
0.00066297
0.00282947
0.00863006
0.0044308
0.00509093
0.00514028
0.00493024
0.00495664
0.00518141
0.0055431
0.00608271
0.00678226
0.00744633
0.00779308
0.00778352
0.00754287
0.00709899
0.00624924
0.0048137
0.00453853
0.00497563
0.0055872
0.00611881
0.00637197
0.0062088
0.00520004
0.00470405
0.00443431
0.00423816
0.00403586
0.00375857
0.00333216
0.00280328
0.00221932
0.00166976
0.00124868
0.00124208
0.00111104
0.000886067
0.000927739
0.00100198
0.0032016
0.0107334
0.00584781
0.00474329
0.00497963
0.00484443
0.0048083
0.00505724
0.00541975
0.00596969
0.0066687
0.00730182
0.00758374
0.00750094
0.0073179
0.00721096
0.00704164
0.00671273
0.00697299
0.00750036
0.00780324
0.00781341
0.00756332
0.00711837
0.00655077
0.00611645
0.00579602
0.0055214
0.00525327
0.00496673
0.00457664
0.00404894
0.00339264
0.00267064
0.00202838
0.00147296
0.00127376
0.00116258
0.00146985
0.0010411
0.00357068
0.0123099
0.00858057
0.00554163
0.00492495
0.00507474
0.00507351
0.0052018
0.00550935
0.00604186
0.00674267
0.00736582
0.0075814
0.00743108
0.00738625
0.00772352
0.00807512
0.00832006
0.00872342
0.00894367
0.00879898
0.00836028
0.00773842
0.00704705
0.00640962
0.00593715
0.00560014
0.00532936
0.00509069
0.00487899
0.00468919
0.00438762
0.0039056
0.00328515
0.00267248
0.00210536
0.00178032
0.00168934
0.00163656
0.00124522
0.00366208
0.0113927
0.00950952
0.00769892
0.00654595
0.00605516
0.00559411
0.00548632
0.00573256
0.00626898
0.00698832
0.0075992
0.00772897
0.00759383
0.00799553
0.00854246
0.00885831
0.00907657
0.00920469
0.00901248
0.00847381
0.00770957
0.00686979
0.00609734
0.00550135
0.00509911
0.00482233
0.00461387
0.00445747
0.00435899
0.00432846
0.00433624
0.00414154
0.00375112
0.0034027
0.00324638
0.00341722
0.00375968
0.00466205
0.00192231
0.00358972
0.0043469
0.00487933
0.00508543
0.00504404
0.00499032
0.00510724
0.00545786
0.00596397
0.0066286
0.00739283
0.00795129
0.00793859
0.00804834
0.00838205
0.00856238
0.00861142
0.00857581
0.00834342
0.00781406
0.00705296
0.00622065
0.0054726
0.00489574
0.00448921
0.00419668
0.00396162
0.00375661
0.00357537
0.00341675
0.00327623
0.00314412
0.00303537
0.00295079
0.00291118
0.00290348
0.00285365
0.00270898
0.00251966
0.00176719
0.00186018
0.00314136
0.00419286
0.00504911
0.00582333
0.00641472
0.00679945
0.00730354
0.00785342
0.00826778
0.00819302
0.00803604
0.00777415
0.00751441
0.00729772
0.00703185
0.00662367
0.00607312
0.00547714
0.0049474
0.00453148
0.00421836
0.00397012
0.00375153
0.0035439
0.00334607
0.00316849
0.00302687
0.00293731
0.00290247
0.00289694
0.00290514
0.00290798
0.00286485
0.00271992
0.00245652
0.00211874
0.00142169
0.00257221
0.00507738
0.00636737
0.0072185
0.0075864
0.00704948
0.00655218
0.00674363
0.00669538
0.00667494
0.00656789
0.00632619
0.0060777
0.00588674
0.00570662
0.00547753
0.00517283
0.00481114
0.00446996
0.0041844
0.00395288
0.00376099
0.00359503
0.00344772
0.00331868
0.00321084
0.00312566
0.00305888
0.00302834
0.00304052
0.00308658
0.0031513
0.00321092
0.00324308
0.0032052
0.00315331
0.00271959
0.0014407
0.00267314
0.00272809
0.00278203
0.0031001
0.0028158
0.00234066
0.00187669
0.00167169
0.00151922
0.00142865
0.00137019
0.00131204
0.00126055
0.00122244
0.00119568
0.00117315
0.00114928
0.00112153
0.00109188
0.00106647
0.00104564
0.00103018
0.00102018
0.00101542
0.00101597
0.00102217
0.00103464
0.00105413
0.00108177
0.00111942
0.00116606
0.00122152
0.00128569
0.00135851
0.00143945
0.00153986
0.00158252
0.00155055
0.00144376
0.00133356
)
;

boundaryField
{
    floor
    {
        type            compressible::alphatWallFunction;
        Prt             0.85;
        value           nonuniform List<scalar> 
36
(
0.000163794
8.56e-05
0.000101246
0.000114894
0.000119488
0.00011742
0.000110017
0.000101845
9.44358e-05
8.79175e-05
8.21733e-05
7.70933e-05
7.2603e-05
6.85621e-05
6.48289e-05
6.12412e-05
5.7592e-05
5.53438e-05
5.01195e-05
5.01188e-05
6.8039e-05
8.14501e-05
9.36744e-05
0.000126077
0.000132017
0.000142516
0.000163793
0.000202471
0.000176054
0.000148441
8.5599e-05
0.000148439
8.44032e-05
0.000165527
0.000124319
0.000182011
)
;
    }
    ceiling
    {
        type            compressible::alphatWallFunction;
        Prt             0.85;
        value           nonuniform List<scalar> 
43
(
0.000363195
0.000370125
0.000376915
0.000416776
0.000381299
0.000321096
0.000261018
0.000233974
0.000213623
0.000201427
0.000193507
0.000185591
0.000178548
0.000173315
0.000169629
0.000166516
0.000163213
0.000159362
0.000155235
0.000151689
0.000148773
0.000146606
0.0001452
0.000144532
0.000144608
0.000145481
0.00014723
0.000149962
0.000153824
0.000159068
0.000165537
0.000173189
0.000181995
0.000191927
0.000202898
0.000216411
0.000222124
0.000217845
0.000203483
0.000188537
0.000477484
0.000569295
0.000350326
)
;
    }
    sWall
    {
        type            compressible::alphatWallFunction;
        Prt             0.85;
        value           uniform 0.000361895;
    }
    nWall
    {
        type            compressible::alphatWallFunction;
        Prt             0.85;
        value           nonuniform List<scalar> 6(0.000142275 0.000147763 0.000176058 0.000200134 0.000202702 0.000188171);
    }
    sideWalls
    {
        type            empty;
    }
    glass1
    {
        type            compressible::alphatWallFunction;
        Prt             0.85;
        value           nonuniform List<scalar> 9(0.000182005 0.000240699 0.000287842 0.000331876 0.000375729 0.000421828 0.000467045 0.000478318 0.000469776);
    }
    glass2
    {
        type            compressible::alphatWallFunction;
        Prt             0.85;
        value           nonuniform List<scalar> 2(0.000264642 0.000244463);
    }
    sun
    {
        type            compressible::alphatWallFunction;
        Prt             0.85;
        value           nonuniform List<scalar> 
14
(
0.000187067
0.000203704
0.000208796
0.000218762
0.000228114
0.000237263
0.00024691
0.000255585
0.000262135
0.000265189
0.000263338
0.00025473
0.000226835
0.000193346
)
;
    }
    Table_master
    {
        type            compressible::alphatWallFunction;
        Prt             0.85;
        value           nonuniform List<scalar> 9(0.000145499 0.000127264 0.00011195 9.94489e-05 8.92883e-05 8.10009e-05 7.42567e-05 6.88053e-05 6.46314e-05);
    }
    Table_slave
    {
        type            compressible::alphatWallFunction;
        Prt             0.85;
        value           nonuniform List<scalar> 9(0.00016173 0.000148421 0.000139369 0.000132584 0.00012666 0.000120748 0.000115032 0.000108916 0.000101687);
    }
    inlet
    {
        type            fixedValue;
        value           uniform 1.94e-05;
    }
    outlet
    {
        type            zeroGradient;
    }
}


// ************************************************************************* //
