/*--------------------------------*- C++ -*----------------------------------*\
  =========                 |
  \\      /  F ield         | OpenFOAM: The Open Source CFD Toolbox
   \\    /   O peration     | Website:  https://openfoam.org
    \\  /    A nd           | Version:  6
     \\/     M anipulation  |
\*---------------------------------------------------------------------------*/
FoamFile
{
    version     2.0;
    format      ascii;
    class       volScalarField;
    location    "600";
    object      epsilon;
}
// * * * * * * * * * * * * * * * * * * * * * * * * * * * * * * * * * * * * * //

dimensions      [0 2 -3 0 0 0 0];

internalField   nonuniform List<scalar> 
662
(
0.000148119
0.000171915
0.000172322
0.000192444
0.000211398
0.000229106
0.000245976
0.000262579
0.000279687
0.00029827
0.000317573
0.000337145
0.000355866
0.00037322
0.00039095
3.10896e-05
5.20291e-05
6.25497e-05
5.60981e-05
4.86825e-05
4.12696e-05
3.49206e-05
2.98292e-05
2.57639e-05
2.24883e-05
1.9824e-05
1.76294e-05
1.5777e-05
1.41581e-05
1.26658e-05
1.118e-05
1.03281e-05
8.28041e-06
0.000465226
0.00101261
0.000150642
0.000135509
0.000134771
0.000135711
0.000138189
0.00014367
0.000154031
0.000170951
0.000193744
0.000221771
0.000252133
0.000283739
0.00034272
0.000551294
0.000387427
0.000206034
3.96675e-05
8.28123e-05
7.88821e-05
6.69419e-05
5.44117e-05
4.60957e-05
3.66557e-05
2.91314e-05
2.34207e-05
1.90683e-05
1.57284e-05
1.31673e-05
1.11908e-05
9.76833e-06
9.12198e-06
9.22795e-06
2.92603e-05
1.87508e-05
0.00103817
0.00333371
0.000222161
0.000120282
0.000113539
0.000112911
0.000114043
0.000118269
0.000127046
0.000141417
0.000161917
0.000187578
0.000214613
0.000240871
0.00028147
0.000370925
0.000380368
0.000260049
0.000253252
0.000170033
0.000117446
8.36037e-05
6.3101e-05
8.86446e-05
6.6977e-05
5.14535e-05
4.04054e-05
3.24519e-05
2.66228e-05
2.22749e-05
1.90007e-05
1.65456e-05
1.29498e-05
1.1399e-05
5.69334e-05
3.00939e-05
0.00202909
0.00793627
0.000486754
0.00012044
0.00010356
0.000102489
0.000101521
0.00010235
0.000107658
0.000120134
0.000140433
0.000166061
0.000190323
0.000207347
0.000234582
0.00031571
0.000435546
0.000517356
0.000575961
0.000342941
0.000190643
0.000116454
7.8102e-05
5.89259e-05
0.000103864
8.64957e-05
7.70828e-05
7.10259e-05
6.55714e-05
5.94405e-05
5.35825e-05
4.73854e-05
4.02272e-05
2.53843e-05
1.77512e-05
9.44218e-05
4.2878e-05
0.00349087
0.0128295
0.00125411
0.00016127
0.000104221
9.80129e-05
9.40427e-05
9.24035e-05
9.66132e-05
0.000110758
0.000137262
0.000170069
0.000198615
0.000206881
0.000213235
0.000255313
0.000322081
0.000272761
0.000217421
0.000150922
0.000103545
7.3675e-05
5.61521e-05
4.67986e-05
4.59472e-05
4.73992e-05
4.92614e-05
4.98799e-05
4.84012e-05
4.47194e-05
4.04545e-05
3.63585e-05
3.25983e-05
2.6892e-05
2.16074e-05
6.1446e-05
9.36557e-05
0.000110047
0.000140028
0.000174693
0.00619413
0.0211552
0.00402997
0.000659492
0.000215434
0.000123068
9.49419e-05
8.4623e-05
8.68543e-05
0.000107285
0.000146513
0.000189944
0.00022921
0.000232373
0.000221142
0.000233417
0.000264401
0.000157379
0.000104334
8.16713e-05
6.6541e-05
5.50327e-05
4.88571e-05
4.76167e-05
5.10784e-05
5.71448e-05
6.28211e-05
6.62313e-05
6.61842e-05
6.16549e-05
5.27889e-05
4.3802e-05
3.59907e-05
2.95213e-05
2.61483e-05
4.24271e-05
7.28969e-05
9.38364e-05
0.000198637
0.000189085
0.0106603
0.0145414
0.0104566
0.00478048
0.00165941
0.000500503
0.000196859
0.000117559
9.74004e-05
0.000107832
0.000161788
0.000214249
0.000277341
0.000275361
0.000247708
0.000235308
0.000255914
0.00013429
7.46654e-05
5.90315e-05
5.36167e-05
5.11827e-05
5.21895e-05
5.63408e-05
6.34626e-05
7.27546e-05
8.26014e-05
9.09211e-05
9.65151e-05
9.70885e-05
8.80664e-05
7.38057e-05
6.09768e-05
5.08101e-05
4.68067e-05
5.51875e-05
8.02976e-05
0.000125014
0.000266809
0.000255172
0.00536825
0.00786376
0.00720869
0.00621666
0.00468798
0.00277829
0.00134251
0.000611515
0.000331368
0.000258174
0.000276636
0.000300842
0.000347174
0.000331557
0.000283776
0.000245306
0.000268359
0.000132624
7.13794e-05
5.82634e-05
5.63239e-05
5.78507e-05
6.20068e-05
6.86692e-05
7.7848e-05
8.93704e-05
0.000102871
0.000118044
0.000134821
0.000152691
0.000169968
0.00017516
0.000176901
0.00018964
0.000219406
0.000316969
0.000549781
0.00103451
0.00418343
0.00108491
0.00114265
0.00337195
0.00355942
0.00298337
0.00208862
0.0013202
0.000847227
0.000607305
0.000488678
0.000434812
0.000437546
0.000397607
0.000318823
0.000249605
0.000279048
0.000144896
8.58627e-05
7.21065e-05
6.97971e-05
7.1251e-05
7.50603e-05
8.11207e-05
8.96077e-05
0.000100774
0.000115049
0.00013327
0.000156829
0.000187731
0.00022872
0.000283184
0.000355968
0.000468515
0.000639126
0.000878693
0.00116757
0.00144671
0.00166651
0.000917086
0.000834265
0.00163309
0.00219263
0.00228621
0.00193672
0.00145715
0.00106507
0.000805739
0.000645227
0.000557888
0.000523108
0.0004518
0.000336594
0.000230623
0.000288001
0.000187276
0.000128374
0.000109768
0.000103696
0.000101677
0.000101712
0.000103643
0.000107645
0.00011397
0.000123028
0.0001356
0.000153077
0.000177765
0.000213352
0.000265135
0.000339006
0.000444
0.000588745
0.00077077
0.000966295
0.00113388
0.00108877
0.000552889
0.00589526
0.00571584
0.00156552
0.00176474
0.00220245
0.00224328
0.00198633
0.00160807
0.00125021
0.000977382
0.000790752
0.000681811
0.000577172
0.000462543
0.000324758
0.000164628
0.000163833
0.000174826
0.000171473
0.000157967
0.00014678
0.00013829
0.000132064
0.000128353
0.000127609
0.000130319
0.000137071
0.000148643
0.000166151
0.000191236
0.000226352
0.000275287
0.000343102
0.00043581
0.000557688
0.000705696
0.000878792
0.0012285
0.00062759
0.000615259
0.0030209
0.00320804
0.00318242
0.00400646
0.00430675
0.00404229
0.0031837
0.00245924
0.00193292
0.00153609
0.00125815
0.00107073
0.000729354
0.000554967
0.000319595
0.000118225
0.000123075
0.000121166
0.000111095
0.000107564
0.000106884
0.000108259
0.000111476
0.000116597
0.000123744
0.000133091
0.000144901
0.00015961
0.000177963
0.000201282
0.000231355
0.000268774
0.000315496
0.00037391
0.00044695
0.0005392
0.00061015
0.00046514
0.000393598
0.000583658
0.0110928
0.0161117
0.00741885
0.0029532
0.000903431
0.000293885
0.000142517
0.000101094
9.54799e-05
0.000132716
0.000190991
0.000237655
0.00801469
0.00786177
0.00669227
0.00555683
0.00371721
0.00196661
0.000898554
0.000433631
0.000276803
0.000263789
0.000289438
0.000312492
0.00286647
0.00358498
0.00334197
0.00254377
0.00167024
0.00104759
0.000706536
0.000537319
0.000455664
0.000424793
0.00126717
0.00195292
0.00230848
0.0021483
0.00169495
0.00124423
0.000920146
0.000714863
0.000593704
0.000536211
0.0164928
0.00314966
0.0014893
0.00206506
0.00226576
0.00214228
0.00180192
0.00142048
0.00110229
0.000873716
0.000727951
0.000647311
0.00739902
0.00306318
0.00360541
0.00424131
0.00424202
0.003706
0.00276332
0.00218194
0.00171762
0.00138609
0.00114972
0.00104981
0.0119035
0.0103717
0.00919206
0.00671531
0.00386038
0.0016585
0.000605476
0.000254099
0.000156617
0.000150625
0.000203635
0.000249892
0.00562279
0.00856851
0.00728158
0.00544375
0.00446292
0.0031823
0.00190873
0.00104564
0.000610266
0.00043482
0.000379924
0.000365053
0.00204001
0.00210114
0.00270617
0.0025982
0.00203617
0.00142484
0.000984645
0.00072573
0.00057655
0.00049997
0.000739467
0.00149022
0.00200336
0.00214389
0.00189847
0.00150057
0.0011422
0.000883678
0.000712792
0.00061442
0.00598804
0.00436701
0.00199133
0.00244221
0.0027726
0.002694
0.00225605
0.00180921
0.00140847
0.00111495
0.000932569
0.000825929
0.0047748
0.00393648
0.00461759
0.00513933
0.00516664
0.00469553
0.00381939
0.00289261
0.00229695
0.00181191
0.00143526
0.00117055
0.0104965
0.0105151
0.0079994
0.00529782
0.00260868
0.00100168
0.000373669
0.000187818
0.000142779
0.000175488
0.00022892
0.000268886
0.00662347
0.00915871
0.00608429
0.0049746
0.00385475
0.00251053
0.00141608
0.00078405
0.000501391
0.000398915
0.000369743
0.000367243
0.00158571
0.00249357
0.00273323
0.00234705
0.00171665
0.00117935
0.000836207
0.000640251
0.000530797
0.000485432
0.00130581
0.00179158
0.0021291
0.002057
0.0017033
0.00131002
0.00100038
0.000788096
0.00065559
0.000590401
0.0136851
0.00297156
0.00213744
0.00268702
0.00278285
0.00249516
0.00202998
0.00159806
0.00124698
0.00101118
0.000873874
0.00078118
0.00362483
0.00430986
0.00491383
0.00521978
0.00498812
0.00430555
0.00325815
0.00257818
0.00204223
0.00160575
0.00129402
0.00106132
)
;

boundaryField
{
    floor
    {
        Cmu             0.09;
        kappa           0.41;
        E               9.8;
        type            epsilonWallFunction;
        value           nonuniform List<scalar> 
36
(
0.00039095
3.10896e-05
5.20291e-05
6.25497e-05
5.60981e-05
4.86825e-05
4.12696e-05
3.49206e-05
2.98292e-05
2.57639e-05
2.24883e-05
1.9824e-05
1.76294e-05
1.5777e-05
1.41581e-05
1.26658e-05
1.118e-05
1.03281e-05
8.28041e-06
8.28041e-06
1.87508e-05
3.00939e-05
4.2878e-05
0.000110047
0.000140028
0.000174693
0.00039095
0.000551294
0.000387427
0.000206034
3.10896e-05
0.000206034
3.96675e-05
0.000260049
0.000253252
0.000575961
)
;
    }
    ceiling
    {
        Cmu             0.09;
        kappa           0.41;
        E               9.8;
        type            epsilonWallFunction;
        value           nonuniform List<scalar> 
58
(
0.00362483
0.00430986
0.00491383
0.00521978
0.00498812
0.00430555
0.00325815
0.00257818
0.00204223
0.00160575
0.00129402
0.00106132
0.000729354
0.000554967
0.000319595
0.000118225
0.000123075
0.000121166
0.000111095
0.000107564
0.000106884
0.000108259
0.000111476
0.000116597
0.000123744
0.000133091
0.000144901
0.00015961
0.000177963
0.000201282
0.000231355
0.000268774
0.000315496
0.00037391
0.00044695
0.0005392
0.00061015
0.00046514
0.000393598
0.000583658
0.00662347
0.00915871
0.000739467
0.0030209
0.00393648
0.00461759
0.00513933
0.00516664
0.00469553
0.00381939
0.00289261
0.00229695
0.00181191
0.00143526
0.00117055
0.00536825
0.00856851
0.000834265
)
;
    }
    sWall
    {
        Cmu             0.09;
        kappa           0.41;
        E               9.8;
        type            epsilonWallFunction;
        value           nonuniform List<scalar> 4(0.00598804 0.0047748 0.00589526 0.0030209);
    }
    nWall
    {
        Cmu             0.09;
        kappa           0.41;
        E               9.8;
        type            epsilonWallFunction;
        value           nonuniform List<scalar> 6(0.000174693 0.000189085 0.000255172 0.000552889 0.000615259 0.000583658);
    }
    sideWalls
    {
        type            empty;
    }
    glass1
    {
        Cmu             0.09;
        kappa           0.41;
        E               9.8;
        type            epsilonWallFunction;
        value           nonuniform List<scalar> 10(0.000148119 0.000465226 0.00103817 0.00202909 0.00349087 0.00619413 0.0119035 0.00562279 0.0106603 0.00536825);
    }
    glass2
    {
        Cmu             0.09;
        kappa           0.41;
        E               9.8;
        type            epsilonWallFunction;
        value           nonuniform List<scalar> 2(0.00108491 0.000917086);
    }
    sun
    {
        Cmu             0.09;
        kappa           0.41;
        E               9.8;
        type            epsilonWallFunction;
        value           nonuniform List<scalar> 
14
(
0.000148119
0.000171915
0.000172322
0.000192444
0.000211398
0.000229106
0.000245976
0.000262579
0.000279687
0.00029827
0.000317573
0.000337145
0.000355866
0.00037322
)
;
    }
    Table_master
    {
        Cmu             0.09;
        kappa           0.41;
        E               9.8;
        type            epsilonWallFunction;
        value           nonuniform List<scalar> 9(8.86446e-05 6.6977e-05 5.14535e-05 4.04054e-05 3.24519e-05 2.66228e-05 2.22749e-05 1.90007e-05 1.65456e-05);
    }
    Table_slave
    {
        Cmu             0.09;
        kappa           0.41;
        E               9.8;
        type            epsilonWallFunction;
        value           nonuniform List<scalar> 9(0.000103864 8.64957e-05 7.70828e-05 7.10259e-05 6.55714e-05 5.94405e-05 5.35825e-05 4.73854e-05 4.02272e-05);
    }
    inlet
    {
        type            turbulentMixingLengthDissipationRateInlet;
        mixingLength    0.01;
        phi             phi;
        k               k;
        value           uniform 0.000471671;
    }
    outlet
    {
        type            zeroGradient;
    }
}


// ************************************************************************* //
