/*--------------------------------*- C++ -*----------------------------------*\
  =========                 |
  \\      /  F ield         | OpenFOAM: The Open Source CFD Toolbox
   \\    /   O peration     | Website:  https://openfoam.org
    \\  /    A nd           | Version:  6
     \\/     M anipulation  |
\*---------------------------------------------------------------------------*/
FoamFile
{
    version     2.0;
    format      ascii;
    class       surfaceScalarField;
    location    "600";
    object      phi;
}
// * * * * * * * * * * * * * * * * * * * * * * * * * * * * * * * * * * * * * //

dimensions      [1 0 -1 0 0 0 0];

internalField   nonuniform List<scalar> 
1530
(
-0.00214604
0.00218654
-0.0021827
3.66878e-05
-0.00228574
0.000103073
-0.00244774
0.000162029
-0.00262844
0.000180733
-0.00280734
0.000178929
-0.00297407
0.000166756
-0.00312191
0.00014787
-0.00324569
0.000123809
-0.00334081
9.51458e-05
-0.00340278
6.1999e-05
-0.00342699
2.42404e-05
-0.00340846
-1.85012e-05
-0.00334208
-6.635e-05
-0.00322317
-0.000118885
-0.00304723
-0.00017591
-0.00281026
-0.00023694
-0.00250962
-0.00030062
-0.00214608
-0.000363514
-0.00172772
-0.000418332
-0.00127431
-0.000453386
-0.000816573
-0.000457708
-0.000387088
-0.000429459
-5.41777e-06
-0.000381644
0.000309211
-0.000314603
0.000544836
-0.000235599
0.000707045
-0.000162183
0.000804096
-9.70238e-05
0.000843684
-3.95605e-05
0.000834006
9.7064e-06
0.000783911
5.01233e-05
0.000703602
8.03385e-05
0.00060777
9.58635e-05
0.000520859
8.69427e-05
0.000485339
3.55544e-05
0.000548384
-6.30114e-05
0.000743283
-0.000194868
0.00106271
-0.000319399
0.0012875
-0.000224755
0.00130238
-0.00145788
0.00372959
-0.00186847
0.000447316
-0.00210022
0.00033485
-0.00228862
0.000350461
-0.00246755
0.000359691
-0.00263501
0.000346421
-0.00278663
0.000318407
-0.00291834
0.000279609
-0.00302618
0.000231681
-0.00310615
0.000175143
-0.0031541
0.000109977
-0.00316572
3.58967e-05
-0.00313672
-4.74757e-05
-0.00306301
-0.000140027
-0.00294067
-0.000241197
-0.00276582
-0.00035074
-0.00253476
-0.000467966
-0.00224468
-0.000590677
-0.00189548
-0.000712685
-0.001494
-0.000819788
-0.00105961
-0.000887752
-0.000622689
-0.0008946
-0.000212817
-0.000839305
0.000142323
-0.000736759
0.000434648
-0.000606903
0.000663987
-0.000464911
0.000833497
-0.000331668
0.000947196
-0.000210696
0.00101088
-0.000103219
0.00103192
-1.13087e-05
0.00101944
6.26306e-05
0.000984114
0.000115696
0.000938968
0.000141039
0.0008987
0.000127241
0.000874544
5.97405e-05
0.000879946
-6.83822e-05
0.000933413
-0.000248305
0.0010015
-0.000387452
0.000864797
-8.80257e-05
0.00220232
-0.00104674
0.00489016
-0.00157726
0.00097786
-0.00186363
0.00062126
-0.00206437
0.000551225
-0.00223931
0.000534662
-0.00239593
0.000503072
-0.00253421
0.000456724
-0.00265228
0.000397709
-0.00274732
0.00032675
-0.00281584
0.000243693
-0.00285389
0.00014806
-0.00285735
3.93858e-05
-0.00282212
-8.26813e-05
-0.00274472
-0.000217397
-0.00262196
-0.000363921
-0.0024507
-0.000521971
-0.0022276
-0.000691039
-0.00194921
-0.000869043
-0.00161339
-0.00104848
-0.00122434
-0.00120881
-0.000802657
-0.00130941
-0.000383639
-0.00131359
6.43642e-07
-0.00122356
0.000328709
-0.0010648
0.000597186
-0.000875355
0.000813256
-0.000680956
0.000977602
-0.000495989
0.00109327
-0.000326341
0.00116527
-0.000175196
0.00119973
-4.57421e-05
0.00120408
5.83069e-05
0.00118698
0.000132825
0.00115674
0.000171306
0.00112009
0.000163925
0.00107982
0.000100036
0.00103749
-2.6027e-05
0.000994492
-0.000205275
0.00089881
-0.000291741
0.000628908
0.000181905
0.00288052
-0.000781224
0.00580697
-0.00133945
0.00153612
-0.0016425
0.000924347
-0.00184114
0.000749899
-0.00200405
0.000697598
-0.00214566
0.000644715
-0.00226847
0.000579568
-0.00237173
0.000500995
-0.00245313
0.00040819
-0.0025094
0.000299993
-0.00253657
0.000175259
-0.00253048
3.33268e-05
-0.00248732
-0.00012581
-0.00240433
-0.000300362
-0.00227921
-0.000489007
-0.00210993
-0.000691223
-0.00189394
-0.000907002
-0.00162726
-0.00113569
-0.00130496
-0.00137076
-0.00092711
-0.00158663
-0.000517202
-0.00171929
-0.000117506
-0.00171326
0.000235146
-0.00157619
0.000535023
-0.00136465
0.000784131
-0.00112444
0.000984528
-0.000881329
0.00113803
-0.000649469
0.00124795
-0.000436236
0.00131876
-0.000245976
0.00135546
-8.24147e-05
0.00136362
5.017e-05
0.00134919
0.000147284
0.00131704
0.000203477
0.00126988
0.000211117
0.00120708
0.000162861
0.00112422
5.68594e-05
0.00100997
-9.09986e-05
0.000805292
-8.70336e-05
0.000480376
0.00050685
0.00342169
-0.00057442
0.00653539
-0.00113127
0.002093
-0.0014475
0.00124061
-0.00163689
0.000939325
-0.00178006
0.000840805
-0.00190201
0.000766694
-0.00200641
0.000683998
-0.00209293
0.000587545
-0.00215935
0.000474641
-0.00220226
0.000342938
-0.00221747
0.000190502
-0.00220047
1.63614e-05
-0.00214759
-0.000178661
-0.00205659
-0.000391333
-0.00192609
-0.000619473
-0.00175567
-0.000861613
-0.00154444
-0.00111821
-0.0012887
-0.0013914
-0.000980762
-0.00167867
-0.000615805
-0.00195156
-0.000223555
-0.00211151
0.000143856
-0.00208065
0.000465411
-0.00189772
0.000739287
-0.0016385
0.000965984
-0.00135111
0.00114695
-0.00106227
0.001285
-0.000787492
0.001384
-0.000535218
0.00144815
-0.000310099
0.00148134
-0.000115577
0.00148711
4.44188e-05
0.00146876
0.000165664
0.00142857
0.000243692
0.00136692
0.000272789
0.00128158
0.000248229
0.00116652
0.000171952
0.000998163
7.73812e-05
0.000717079
0.000194078
0.000364069
0.000859888
0.00385683
-0.000404718
0.0071107
-0.000945333
0.00263364
-0.00127502
0.00157032
-0.00145574
0.00112008
-0.00157524
0.000960338
-0.00167453
0.000866016
-0.00175882
0.00076832
-0.00182794
0.000656702
-0.00187951
0.000526236
-0.0019097
0.000373167
-0.00191378
0.000194609
-0.00188649
-1.08918e-05
-0.00182359
-0.000241538
-0.00172264
-0.000492245
-0.00158351
-0.000758579
-0.00140796
-0.00103713
-0.00119764
-0.00132849
-0.000950111
-0.0016389
-0.000655481
-0.00197327
-0.000305102
-0.00230191
5.83458e-05
-0.00247493
0.000389136
-0.00241141
0.000678465
-0.00218702
0.000923619
-0.00188363
0.00112332
-0.00155079
0.00127993
-0.00121886
0.00139763
-0.000905171
0.00148108
-0.000618641
0.00153439
-0.000363388
0.00156055
-0.000141713
0.00156125
4.37477e-05
0.00153732
0.000189616
0.00148882
0.000292214
0.00141433
0.000347304
0.00131025
0.000352335
0.00116945
0.000312787
0.000963529
0.000283324
0.000647642
0.000509993
0.000277455
0.0012301
0.00421493
-0.000267255
0.0075641
-0.000781992
0.00314841
-0.00111958
0.00190794
-0.0012965
0.00129704
-0.00139188
0.00105576
-0.00146743
0.000941602
-0.00153137
0.00083229
-0.0015837
0.000709058
-0.00162173
0.0005643
-0.00164097
0.000392441
-0.00163558
0.000189257
-0.00159914
-4.73003e-05
-0.00152607
-0.000314584
-0.0014135
-0.000604779
-0.00126316
-0.000908893
-0.00107945
-0.0012208
-0.00086696
-0.00154096
-0.000624789
-0.00188104
-0.000341418
-0.00225661
-8.73199e-06
-0.00263457
0.000316552
-0.00280019
0.000610837
-0.00270567
0.000866897
-0.00244306
0.00107812
-0.00209483
0.00124498
-0.00171763
0.00137184
-0.00134569
0.00146438
-0.000997686
0.00152805
-0.000682284
0.00156705
-0.000402362
0.00158371
-0.000158349
0.00157828
4.91962e-05
0.00154964
0.000218287
0.00149585
0.000346029
0.00141391
0.000429261
0.00129913
0.000467146
0.00114293
0.00046901
0.000916432
0.000509848
0.000589077
0.000837375
0.000213715
0.00160549
0.00451837
-0.000158998
0.00792412
-0.00064303
0.00363248
-0.000976468
0.00224141
-0.00115405
0.00147465
-0.00122787
0.00112961
-0.00128015
0.000993916
-0.00132436
0.000876536
-0.00136086
0.000745594
-0.00138676
0.000590224
-0.00139671
0.000402429
-0.00138327
0.000175844
-0.00133747
-9.30627e-05
-0.00125252
-0.0003995
-0.00112658
-0.000730688
-0.000964077
-0.00107137
-0.000771982
-0.00141287
-0.000557385
-0.00175553
-0.000319966
-0.00211843
-4.63901e-05
-0.00253016
0.000255549
-0.00293648
0.000544716
-0.00308933
0.000805526
-0.00296645
0.00102289
-0.0026604
0.00119375
-0.00226566
0.00132207
-0.00184592
0.00141456
-0.00143817
0.00147831
-0.00106141
0.00151937
-0.000723321
0.00154199
-0.000424961
0.00154803
-0.000164359
0.00153676
6.04829e-05
0.00150569
0.000249388
0.00145129
0.000400457
0.00136917
0.000511398
0.00125361
0.000582734
0.0010944
0.000628245
0.000860677
0.000743598
0.000533602
0.00116448
0.000166374
0.00197275
0.00478318
-8.77628e-05
0.00822724
-0.000530991
0.00407573
-0.000837844
0.0025483
-0.00101705
0.00165389
-0.00107663
0.00118922
-0.00110783
0.00102515
-0.00113345
0.000902185
-0.00115465
0.000766831
-0.00116855
0.000604148
-0.00116894
0.000402858
-0.00114633
0.000153268
-0.00108873
-0.000150636
-0.000989262
-0.000498935
-0.000848657
-0.000871263
-0.000675749
-0.00124425
-0.000479143
-0.00160944
-0.000267273
-0.00196737
-3.79662e-05
-0.00234771
0.00021164
-0.00277973
0.000482466
-0.00320728
0.000743111
-0.00334994
0.000964714
-0.00318803
0.0011361
-0.00283176
0.00126022
-0.00238976
0.00134535
-0.00193102
0.00140062
-0.00149341
0.00143406
-0.00109482
0.00145193
-0.000741165
0.00145826
-0.000431265
0.00145443
-0.000160505
0.00143913
7.58013e-05
0.00140901
0.000279539
0.00135936
0.000450128
0.00128462
0.000586158
0.00117789
0.000689491
0.00102638
0.000779784
0.000795775
0.000974228
0.000479545
0.00148073
0.000128858
0.00232346
0.00501892
-4.27524e-06
0.00846133
-0.000414096
0.00448559
-0.00066862
0.00280285
-0.000856076
0.00184138
-0.00092369
0.00125687
-0.000941178
0.00104267
-0.000950604
0.000911644
-0.000956568
0.000772828
-0.000956976
0.000604589
-0.000945086
0.000390999
-0.00090867
0.000116883
-0.000833033
-0.000226242
-0.000715169
-0.000616768
-0.000560179
-0.00102622
-0.000382812
-0.00142158
-0.00019125
-0.00180097
8.23698e-06
-0.00216682
0.000211344
-0.00255078
0.00042811
-0.00299647
0.000676017
-0.00345516
0.000903379
-0.00357728
0.00107721
-0.00336183
0.00119444
-0.00294896
0.00126613
-0.00246142
0.00130523
-0.00197009
0.00132282
-0.00151097
0.00132712
-0.00109911
0.00132385
-0.000737862
0.00131633
-0.000423725
0.00130538
-0.000149527
0.00128931
9.18977e-05
0.00126426
0.000304607
0.0012248
0.000489612
0.00116446
0.000646523
0.00107507
0.000778908
0.000940203
0.000914677
0.000721514
0.00119294
0.000424976
0.0017773
9.4051e-05
0.00265441
0.00522807
0.000156665
0.00854837
-0.000140604
0.00478289
-0.00037879
0.00304107
-0.000606071
0.00206869
-0.000732227
0.00138306
-0.000762135
0.00107261
-0.000761918
0.00091146
-0.000753149
0.000764091
-0.000737008
0.00058848
-0.000707487
0.000361509
-0.000646322
5.57486e-05
-0.000541536
-0.000330997
-0.000402459
-0.000755815
-0.000239389
-0.00118926
-6.92547e-05
-0.00159169
9.95598e-05
-0.00196976
0.000264642
-0.00233187
0.000426512
-0.00271262
0.000610334
-0.00318026
0.000832013
-0.00367681
0.00101593
-0.00376117
0.00113057
-0.00347645
0.0011849
-0.00300326
0.00119971
-0.00247621
0.00119222
-0.00196257
0.00117449
-0.00149321
0.00115374
-0.00107833
0.00113404
-0.000718138
0.00111735
-0.00040701
0.00110364
-0.000135789
0.00109095
0.000104614
0.00107526
0.000320317
0.00105087
0.000514025
0.00101089
0.000686531
0.00094608
0.000843744
0.000835544
0.00102524
0.000638655
0.00138986
0.00037419
0.00204179
6.50959e-05
0.00296354
0.00541628
0.000297555
0.00850837
0.000142448
0.00493803
-1.09268e-05
0.00319448
-0.000206989
0.00226479
-0.000416136
0.00159224
-0.00051851
0.00117502
-0.000532324
0.000925307
-0.000514214
0.000746014
-0.000476823
0.00055112
-0.000418488
0.000303205
-0.000314775
-4.79334e-05
-0.000173238
-0.000472504
-1.73335e-05
-0.000911691
0.000133184
-0.00133975
0.000270832
-0.00172931
0.000393305
-0.0020922
0.000505815
-0.00244435
0.000617398
-0.00282418
0.00075711
-0.00331994
0.000943165
-0.00386283
0.00106926
-0.00388724
0.00111081
-0.00351797
0.00109357
-0.00298599
0.00104901
-0.00243163
0.00099698
-0.00191052
0.000949113
-0.00144532
0.00091005
-0.00103924
0.000880951
-0.000689014
0.00086149
-0.000387522
0.000850381
-0.000124655
0.000845389
0.000109632
0.000842796
0.000322936
0.000837252
0.000519595
0.000822038
0.00070177
0.00078728
0.000878528
0.000706565
0.00110598
0.00054422
0.00155223
0.000335225
0.00225081
6.62109e-05
0.00323258
0.00561322
4.6339e-05
0.00873343
0.000106381
0.00487802
0.000421983
0.00287891
0.000436737
0.00225007
0.000203384
0.00182563
-2.4245e-05
0.00140268
-0.000133151
0.00103425
-0.000143157
0.000756052
-8.99078e-05
0.000497903
1.82436e-05
0.000195085
0.00016724
-0.0001969
0.000321597
-0.000626833
0.000459122
-0.00104919
0.000565004
-0.0014456
0.000644481
-0.00180875
0.000700788
-0.00214848
0.000741939
-0.00248547
0.000782642
-0.00286485
0.000861677
-0.00339895
0.000999263
-0.00400039
0.00104876
-0.0039367
0.00100153
-0.00347071
0.000905203
-0.00288963
0.000801659
-0.00232805
0.000709665
-0.0018185
0.000638853
-0.00137448
0.000589558
-0.00098992
0.000559075
-0.000658504
0.000544011
-0.000372432
0.00054122
-0.000121837
0.00054807
0.000102808
0.000561694
0.000309337
0.000577646
0.000503669
0.000589612
0.00068983
0.000586218
0.000881949
0.000533716
0.00115851
0.000416161
0.00166981
0.000291957
0.00237504
8.90932e-05
0.00343546
0.00584032
-0.000304112
0.00932192
0.000277718
0.00429622
0.00118242
0.00197424
0.00140817
0.00202435
0.00119682
0.00203701
0.000928359
0.00167118
0.000735731
0.00122691
0.000642838
0.000848978
0.000645675
0.000495098
0.000737951
0.00010284
0.000865261
-0.00032418
0.000975
-0.000736543
0.00104686
-0.00112102
0.00107515
-0.00147386
0.00106523
-0.0017988
0.00102556
-0.00210878
0.000968372
-0.00242825
0.000914103
-0.00281055
0.000913176
-0.00339799
0.000985915
-0.0040731
0.000935283
-0.00388604
0.000783502
-0.0033189
0.00060347
-0.00270957
0.000444697
-0.00216925
0.00031923
-0.001693
0.000232275
-0.00128749
0.000178837
-0.000936456
0.000152806
-0.000632445
0.000147922
-0.00036752
0.000158669
-0.000132557
0.000181597
7.99074e-05
0.000214752
0.000276208
0.000254659
0.000463789
0.000293924
0.000650592
0.000315166
0.000860733
0.000280797
0.0011929
0.000206113
0.00174452
0.000179925
0.00240124
5.45639e-05
0.00356083
0.00604055
0.00166648
0.0079637
0.00281627
0.00314646
0.00335259
0.00143795
0.00320683
0.00217015
0.00281677
0.0024271
0.00246787
0.00202011
0.00218794
0.00150687
0.0019936
0.00104335
0.00189131
0.000597411
0.00185706
0.000137129
0.00184587
-0.000312958
0.00182053
-0.000711181
0.0017598
-0.00106025
0.00165779
-0.00137182
0.00151827
-0.00165925
0.00134999
-0.00194048
0.00116674
-0.00224496
0.000993966
-0.00263775
0.000894379
-0.00329837
0.000883731
-0.00406241
0.00070639
-0.00370866
0.000437985
-0.00305046
0.000175509
-0.00244707
-3.44879e-05
-0.00195923
-0.000186899
-0.00154056
-0.000288097
-0.00118627
-0.000346294
-0.000878231
-0.000368926
-0.000609785
-0.000363234
-0.000373183
-0.000336293
-0.000159471
-0.000294526
3.81685e-05
-0.000240001
0.00022171
-0.000175406
0.000399221
-0.000112611
0.000587825
-7.46636e-05
0.000822813
-8.18289e-05
0.0012001
-0.00011285
0.00177558
-0.000145329
0.00243375
-0.000219205
0.00363471
0.005975
0.00830585
0.011449
0.00974869
0.00313832
0.00748757
0.0044313
0.00602551
0.00388919
0.00503705
0.0030086
0.00431779
0.00222617
0.00382335
0.00153782
0.0034939
0.000926897
0.00323621
0.000394843
0.00299289
-6.9605e-05
0.00275315
-0.00047141
0.00250504
-0.000812113
0.00223792
-0.00110467
0.00194618
-0.00136748
0.00163058
-0.00162484
0.00130123
-0.00191558
0.000989802
-0.00232629
0.000778315
-0.00308685
0.000670519
-0.00395458
0.000343366
-0.00338148
-4.71894e-05
-0.00265988
-0.000380417
-0.00211381
-0.00063813
-0.00170149
-0.000824408
-0.00135426
-0.000952089
-0.00105856
-0.00102721
-0.00080308
-0.00105675
-0.000580214
-0.00104774
-0.00038217
-0.00100729
-0.000199886
-0.000944612
-2.44827e-05
-0.000866498
0.000143624
-0.000777752
0.000310502
-0.000688988
0.000499088
-0.000612626
0.000746481
-0.000536221
0.00112373
-0.000446315
0.00168572
-0.000455386
0.00244287
-0.000493124
0.00367249
0.00564318
0.00175707
0.00370653
0.00281446
0.00337394
0.00386516
0.00283853
0.00413784
0.00273594
0.00408807
0.00227598
0.0039795
0.00164641
0.00385936
0.00104708
0.00371475
0.000539479
0.00352202
0.00012316
0.0032737
-0.000223058
0.00297434
-0.000512729
0.00262921
-0.000759502
0.00224027
-0.000978514
0.00180828
-0.00119282
0.00134016
-0.00144743
0.000876667
-0.00186277
0.000541182
-0.00275133
0.000321869
-0.00373523
-0.00016603
-0.00289355
-0.000657443
-0.00216844
-0.00106235
-0.00170888
-0.00138733
-0.00137648
-0.00163137
-0.0011102
-0.00180233
-0.000887568
-0.0019082
-0.000697187
-0.00195677
-0.000531613
-0.00195496
-0.000383946
-0.00190839
-0.000246426
-0.00182257
-0.000110268
-0.00171217
3.32539e-05
-0.001587
0.00018536
-0.0014461
0.000358217
-0.00128139
0.000581791
-0.0010482
0.000890571
-0.00071023
0.0013478
-0.000403248
0.00213595
-0.000337774
0.0036071
0.00547359
-0.000133272
0.00385768
0.00147073
0.00176996
0.00227463
0.00203466
0.00278848
0.00222212
0.00316856
0.00189593
0.00342732
0.00138768
0.00356658
0.000907848
0.00359573
0.000510367
0.00352474
0.000194175
0.00335456
-5.2844e-05
0.0030978
-0.000255937
0.00276693
-0.000428607
0.00236765
-0.000579195
0.00189792
-0.000723055
0.0013517
-0.000901191
0.000750892
-0.00126193
0.000225677
-0.00222609
-0.000216946
-0.00329257
-0.000868271
-0.0022422
-0.00145696
-0.00157972
-0.00194959
-0.00121622
-0.00234516
-0.000980893
-0.00264963
-0.000805699
-0.002872
-0.000665172
-0.00302086
-0.000548293
-0.00310367
-0.000448768
-0.00312629
-0.000361286
-0.00309247
-0.000280205
-0.00300363
-0.000199071
-0.00286151
-0.000108847
-0.00267942
3.29286e-06
-0.00246295
0.000141761
-0.0021858
0.000304656
-0.00177468
0.000479461
-0.00111491
0.000688056
-0.000191965
0.00121305
0.000356928
0.00305826
0.00600334
0.007672
-0.00799943
0.000247301
-0.00114419
-0.000384337
0.00448934
-0.00021478
0.00160043
0.000599616
0.0012203
0.00143384
0.00138792
0.00215547
0.00117433
0.00271235
0.000830824
0.00307528
0.000544956
0.00326299
0.000322679
0.00330398
0.000153222
0.00322606
2.51061e-05
0.00305776
-8.76128e-05
0.00280865
-0.000179458
0.00248469
-0.000255206
0.00208425
-0.000322585
0.00159258
-0.000409493
0.000962143
-0.00063146
2.78034e-05
-0.00129172
-0.00106547
-0.00219927
-0.00196091
-0.00134673
-0.00265057
-0.000890038
-0.0031955
-0.000671264
-0.00363016
-0.00054621
-0.00397417
-0.000461661
-0.00424074
-0.000398569
-0.00443959
-0.000349397
-0.00457796
-0.000310361
-0.00466059
-0.000278611
-0.00468936
-0.000251392
-0.00466233
-0.000226069
-0.00457121
-0.000199945
-0.00440053
-0.000167381
-0.00414581
-0.000112961
-0.00381493
-2.62326e-05
-0.00335963
2.41556e-05
-0.00256048
-0.00011109
-0.00124661
-0.000100814
-0.000302174
0.00211386
0.00588613
-0.00739488
-0.008524
-0.00401951
-0.00240919
-0.00118049
0.0002149
0.00139631
0.00223431
0.00278667
0.00311706
0.00327835
0.00331191
0.00323313
0.00306289
0.00281728
0.0025047
0.00210564
0.00148508
0.000205038
-0.00197893
-0.0033107
-0.00418642
-0.00484394
-0.00537694
-0.00582594
-0.00621237
-0.00655017
-0.00684948
-0.00711758
-0.00735899
-0.00757559
-0.00776657
-0.00792547
-0.00803042
-0.0080491
-0.00801787
-0.00812238
-0.0082171
-0.00609762
)
;

boundaryField
{
    floor
    {
        type            calculated;
        value           uniform 0;
    }
    ceiling
    {
        type            calculated;
        value           nonuniform List<scalar> 
43
(
-1.07704e-05
-1.50427e-05
-1.51345e-05
-9.85534e-06
-8.37565e-06
-7.44065e-06
-7.05234e-06
-7.1444e-06
-7.37554e-06
-7.68257e-06
-8.03796e-06
-8.42541e-06
-8.80592e-06
-9.18471e-06
-9.57323e-06
-9.97825e-06
-1.04053e-05
-1.08738e-05
-1.16443e-05
-1.52616e-05
-1.49357e-05
-1.43002e-05
-1.37214e-05
-1.3174e-05
-1.26355e-05
-1.20954e-05
-1.15519e-05
-1.10084e-05
-1.04714e-05
-9.94744e-06
-9.44117e-06
-8.95376e-06
-8.482e-06
-8.01855e-06
-7.55245e-06
-7.07406e-06
-6.57603e-06
-6.07386e-06
-5.5746e-06
-5.04924e-06
5.48307e-06
3.30518e-06
-1.78523e-05
)
;
    }
    sWall
    {
        type            calculated;
        value           nonuniform List<scalar> 
18
(
-4.04639e-05
-8.51467e-05
-0.000113791
-0.000135562
-0.000153966
-0.000170563
-0.000186107
-0.00020099
-0.000215329
-0.000229784
-0.000243669
-0.000257524
-0.000271377
-0.000284346
-0.000308225
-0.000347593
-0.000542798
-0.000593752
)
;
    }
    nWall
    {
        type            calculated;
        value           nonuniform List<scalar> 
20
(
-1.48506e-05
-3.5111e-05
-4.92583e-05
-6.07647e-05
-7.10501e-05
-8.06158e-05
-8.96949e-05
-9.84101e-05
-0.000106846
-0.000115075
-0.000123085
-0.000130695
-0.000137987
-0.000145659
-0.000153642
-0.000161278
-0.000168144
-0.00017275
-0.00018491
-0.000206392
)
;
    }
    sideWalls
    {
        type            empty;
        value           nonuniform 0();
    }
    inlet
    {
        type            calculated;
        value           uniform -0.00232526;
    }
    outlet
    {
        type            calculated;
        value           nonuniform List<scalar> 2(0.000870252 0.00856891);
    }
}


// ************************************************************************* //
