/*--------------------------------*- C++ -*----------------------------------*\
  =========                 |
  \\      /  F ield         | OpenFOAM: The Open Source CFD Toolbox
   \\    /   O peration     | Website:  https://openfoam.org
    \\  /    A nd           | Version:  6
     \\/     M anipulation  |
\*---------------------------------------------------------------------------*/
FoamFile
{
    version     2.0;
    format      ascii;
    class       surfaceScalarField;
    location    "600";
    object      phi;
}
// * * * * * * * * * * * * * * * * * * * * * * * * * * * * * * * * * * * * * //

dimensions      [1 0 -1 0 0 0 0];

internalField   nonuniform List<scalar> 
1482
(
-0.00274691
0.0028295
-0.00284081
9.42113e-05
-0.00294399
0.000103484
-0.00312545
0.000181763
-0.00330646
0.000181309
-0.00344741
0.000141238
-0.0035268
7.96687e-05
-0.00352924
2.72015e-06
-0.00344013
-8.88445e-05
-0.00324522
-0.000194649
-0.0029363
-0.000308662
-0.00251355
-0.000422493
-0.00196429
-0.000549009
-0.00118492
-0.000779123
-0.00117652
-0.00154433
0.00155633
-0.00196789
0.000423596
-0.00199136
2.35082e-05
-0.00188848
-0.000102842
-0.00173899
-0.000149441
-0.00160526
-0.000133692
-0.00152436
-8.08754e-05
-0.0014674
-5.69387e-05
-0.00141235
-5.50511e-05
-0.00133799
-7.43735e-05
-0.00122126
-0.000116748
-0.0010416
-0.000179703
-0.000776532
-0.000265114
-0.000360097
-0.000416487
0.00030863
-0.000668766
0.00108042
-0.000771811
0.00133378
-0.000253363
0.00134493
-0.0019538
0.00499222
-0.00251843
0.000659131
-0.00286822
0.000453542
-0.00313541
0.000449217
-0.00336422
0.000410379
-0.0035457
0.000322962
-0.00366766
0.000201858
-0.00371984
5.51146e-05
-0.00369557
-0.000112904
-0.0035916
-0.000298408
-0.00340531
-0.000494759
-0.00313316
-0.000694448
-0.00277721
-0.000904764
-0.00244398
-0.00111216
-0.00258611
-0.00103417
-0.00183685
-0.00073395
-0.00102288
-0.000798458
-0.000985354
-0.000744995
0.00233119
-0.00110098
0.000779584
-0.00115788
8.04122e-05
-0.00114122
-0.000119496
-0.00110334
-0.000187315
-0.00107379
-0.000163224
-0.00107005
-8.4607e-05
-0.00107078
-5.62062e-05
-0.00107272
-5.31111e-05
-0.00106796
-7.91423e-05
-0.00104652
-0.000138216
-0.00100717
-0.000219075
-0.000970482
-0.00030184
-0.000947892
-0.000439107
-0.000864776
-0.000751908
-0.000716641
-0.000919961
-0.000450318
-0.000519678
0.000926894
-0.00142774
0.00672715
-0.00218539
0.00141707
-0.00266452
0.000932928
-0.00298256
0.000767501
-0.00323792
0.000665968
-0.00344096
0.000526219
-0.00358642
0.000347517
-0.00366806
0.000136941
-0.00368132
-9.94711e-05
-0.0036243
-0.000355272
-0.00349604
-0.000622864
-0.00329789
-0.000892447
-0.00304952
-0.00115299
-0.00280445
-0.00135709
-0.00244634
-0.00139214
-0.00183362
-0.00134652
-0.00106496
-0.00156696
-0.00201716
0.00135638
0.00101918
0.00109794
0.00103802
0.000478047
0.000700299
6.11837e-05
0.000297377
-0.000151558
2.54253e-05
-0.000314626
-0.000399072
-0.000455122
-0.000508083
-0.000587081
-0.000725158
-0.000944103
-0.00124583
-0.00168484
-0.00206931
-0.000367555
-0.00275699
-0.000232419
-0.00272537
-0.000551442
-0.00175653
-0.00106055
0.00817529
-0.00190747
0.00226427
-0.00243677
0.00146248
-0.00277672
0.00110767
-0.00304202
0.000931486
-0.00325378
0.000738163
-0.00341142
0.000505333
-0.00350982
0.000235507
-0.0035438
-6.5356e-05
-0.00351062
-0.000388312
-0.00340988
-0.000723482
-0.00324836
-0.00105386
-0.00304801
-0.00135324
-0.00282793
-0.00157706
-0.00253241
-0.00168755
-0.00213695
-0.00174187
-0.00187133
-0.00183246
-0.00234998
-0.00153838
-0.00142588
-0.000888021
-0.000448635
4.20546e-05
-5.06644e-05
0.000640132
0.000111566
0.000538163
0.000132784
0.000276255
0.000104368
5.39387e-05
0.000165562
-6.12535e-05
0.000288501
-0.000122997
0.000437993
-0.000149542
0.000601135
-0.000163187
0.000773798
-0.000172705
0.000955664
-0.000181908
0.00114761
-0.00019199
0.00135005
-0.000202478
0.00155257
-0.000202577
0.00142737
-0.000242264
0.00136442
-0.000169419
0.000988083
-0.000175101
-0.000716457
-0.000770217
0.009402
-0.00167837
0.0031727
-0.00222389
0.00200825
-0.00256222
0.00144622
-0.00282064
0.00119009
-0.00303098
0.000948678
-0.00319564
0.000670151
-0.00330861
0.000348616
-0.00336228
-1.15705e-05
-0.00335127
-0.000399218
-0.00327413
-0.000800531
-0.00313618
-0.00119172
-0.00295336
-0.00153597
-0.0027409
-0.00178944
-0.00250165
-0.00192671
-0.00227502
-0.00196842
-0.00218832
-0.00191907
-0.00209696
-0.00162966
-0.0018773
-0.00110759
-0.00131024
-0.000524903
-0.00063451
-3.54892e-05
-0.000169895
7.36759e-05
0.000114546
-8.04432e-06
0.000295918
-0.000127285
0.000449797
-0.000214971
0.000593071
-0.000266102
0.000736129
-0.000292425
0.000881277
-0.000308154
0.00103041
-0.000321652
0.00118575
-0.000337063
0.0013499
-0.000355959
0.00152551
-0.000377908
0.00172096
-0.000397841
0.0019011
-0.000422239
0.00216981
-0.000437982
0.00249577
-0.000500948
0.00255568
-0.000776276
0.00336815
-0.000756005
0.00352613
-0.00010107
0.00371575
-0.000573446
0.0104932
-0.00155172
0.00415125
-0.00204814
0.00250491
-0.00234998
0.00174826
-0.00257939
0.00141969
-0.00277554
0.00114499
-0.00294111
0.000835857
-0.00306662
0.000474248
-0.00314038
6.22933e-05
-0.00315237
-0.000387153
-0.00309713
-0.000855691
-0.00297444
-0.00131434
-0.00279262
-0.00171773
-0.00256593
-0.00201607
-0.00231696
-0.00217561
-0.00209183
-0.00219347
-0.00193597
-0.00207485
-0.00176864
-0.0017969
-0.00150132
-0.00137481
-0.00109268
-0.00093343
-0.00056637
-0.000561671
-0.000106576
-0.000385972
0.0002419
-0.000356346
0.000491195
-0.000376396
0.000679994
-0.000403573
0.000835868
-0.000421767
0.000975387
-0.000431727
0.00110692
-0.000439467
0.00123561
-0.000450106
0.00136548
-0.000466705
0.00150025
-0.000490495
0.00164345
-0.000520878
0.00180068
-0.000554845
0.00196949
-0.000590828
0.00215399
-0.000622273
0.00230679
-0.000653562
0.00221323
-0.000682554
0.00187057
-0.000413213
0.00138831
0.000381281
0.00524799
-0.000653488
0.0117195
-0.00164526
0.00514328
-0.0019224
0.00278228
-0.00212769
0.00195376
-0.00230139
0.00159356
-0.00247212
0.00131586
-0.00263443
0.000998301
-0.00277229
0.000612203
-0.00286817
0.000158257
-0.00290682
-0.000348441
-0.00287805
-0.000884404
-0.0027756
-0.00141675
-0.00260125
-0.00189202
-0.00236668
-0.00225058
-0.00209727
-0.00244494
-0.00183262
-0.00245804
-0.00159497
-0.00231242
-0.00135172
-0.00204006
-0.00105525
-0.00167117
-0.000692358
-0.00129619
-0.000272046
-0.000981833
0.000126734
-0.000784577
0.000454932
-0.000684355
0.000709656
-0.000630914
0.000907516
-0.00060121
0.00106682
-0.00058083
0.00120114
-0.000565803
0.0013194
-0.000557465
0.00142788
-0.000558314
0.00153174
-0.000570291
0.0016358
-0.000594286
0.00174499
-0.000629789
0.00186472
-0.000674305
0.00199742
-0.00072327
0.0021414
-0.000766011
0.00227067
-0.000782604
0.00229321
-0.000704882
0.0021402
-0.000260025
0.00155751
0.000964112
0.00695155
-0.000553781
0.0129016
-0.00150366
0.00609342
-0.00158731
0.00286615
-0.00177923
0.00214588
-0.00193137
0.00174586
-0.00208671
0.00147134
-0.00225086
0.00116258
-0.00240382
0.000765252
-0.00252398
0.000278487
-0.00259231
-0.000280055
-0.00259533
-0.000881348
-0.00252229
-0.00148974
-0.0023693
-0.00204496
-0.00214262
-0.0024772
-0.0018635
-0.002724
-0.00156839
-0.00275307
-0.00127738
-0.00260334
-0.000976282
-0.00234104
-0.000659602
-0.00198773
-0.000317896
-0.00163776
4.29474e-05
-0.00134251
0.000386773
-0.00112823
0.000681423
-0.00097881
0.000923559
-0.000872833
0.00111818
-0.000795597
0.00127463
-0.00073702
0.00140178
-0.000692678
0.00150673
-0.000662124
0.00159529
-0.000646581
0.00167277
-0.00064746
0.00174443
-0.00066564
0.00181594
-0.000700992
0.00189364
-0.00075171
0.00198411
-0.000813447
0.00209588
-0.000877514
0.00223627
-0.000922736
0.00235904
-0.000827408
0.00233251
-0.000233252
0.00184024
0.00145657
0.00934059
0.00355842
0.0100375
0.00229324
0.00735886
0.000385142
0.00477451
-0.00077786
0.00330906
-0.00131974
0.0022879
-0.00156025
0.00171198
-0.00176158
0.00136403
-0.00194033
0.000944095
-0.0020875
0.000425718
-0.00218638
-0.000181128
-0.0022243
-0.000843398
-0.00219041
-0.00152359
-0.00207633
-0.00215899
-0.00188016
-0.0026733
-0.00161413
-0.00298995
-0.00131451
-0.00305261
-0.00100508
-0.00291267
-0.000675517
-0.00267049
-0.000352167
-0.00231095
-3.0886e-05
-0.00195889
0.000289864
-0.00166311
0.000591882
-0.00143008
0.00085929
-0.00124603
0.00108664
-0.00109997
0.00127443
-0.000983144
0.00142645
-0.000888778
0.00154727
-0.000813218
0.00164127
-0.000755823
0.00171269
-0.000717683
0.00176587
-0.000700315
0.00180539
-0.000704834
0.00183617
-0.000731443
0.00186357
-0.000778786
0.00189371
-0.000843287
0.00193637
-0.000919886
0.00201272
-0.000998807
0.00220784
-0.00102226
0.00189749
7.73513e-05
0.000271709
0.00308257
0.0101879
0.00429
0.00590844
0.00372844
0.00792069
0.00213023
0.00637297
0.000748567
0.00469093
-0.000252578
0.00328918
-0.000829997
0.00228954
-0.00114341
0.00167757
-0.00136767
0.00116846
-0.00154613
0.000604255
-0.00167205
-5.51663e-05
-0.00174253
-0.000772887
-0.00175545
-0.00151063
-0.00169919
-0.00221519
-0.00156072
-0.00281169
-0.00133678
-0.0032138
-0.00106275
-0.00332655
-0.000768908
-0.00320642
-0.000439375
-0.00299991
-0.000129909
-0.00262028
0.000160023
-0.00224868
0.000443078
-0.00194602
0.000710177
-0.00169702
0.000951733
-0.0014874
0.00116266
-0.00131068
0.00134153
-0.00116179
0.00148871
-0.0010357
0.0016051
-0.000929329
0.00169205
-0.000842473
0.00175151
-0.000776833
0.00178595
-0.000734418
0.00179791
-0.000716464
0.00178954
-0.000722732
0.00176148
-0.000750398
0.00171075
-0.00079225
0.00162486
-0.000833707
0.00142393
-0.000797607
0.00044131
-3.93716e-05
-0.00191942
0.00243838
-0.00350008
0.00466345
0.0068316
0.00218565
0.00391543
0.0029956
0.00711099
0.00267641
0.00669241
0.00194621
0.00542134
0.00106027
0.00417527
0.000259593
0.00309033
-0.000291892
0.00222917
-0.000640237
0.00151691
-0.000875282
0.000839381
-0.00102799
9.7595e-05
-0.00112786
-0.000672988
-0.00119467
-0.00144377
-0.00121587
-0.00219389
-0.00116544
-0.00286199
-0.00101697
-0.00336213
-0.000799017
-0.00354439
-0.000551357
-0.00345398
-0.000246928
-0.00330421
2.69221e-05
-0.00289399
0.000273688
-0.00249532
0.000510878
-0.00218308
0.000738333
-0.00192432
0.000948229
-0.00169713
0.00113629
-0.00149856
0.00130082
-0.00132611
0.00143997
-0.00117461
0.00155145
-0.00104055
0.00163375
-0.000924489
0.00168654
-0.000829328
0.00171014
-0.000757692
0.00170442
-0.000710424
0.00166779
-0.000685772
0.00159535
-0.000677639
0.0014739
-0.000670504
0.00126406
-0.000623583
0.000814589
-0.00034787
-0.000337632
0.00111305
-0.00140609
0.003507
-0.00168431
0.00494181
0.00530881
0.00113697
0.00300872
0.00233669
0.00591151
0.00286835
0.006161
0.00275482
0.00553507
0.00221844
0.00471181
0.00151643
0.00379244
0.000874704
0.00287097
0.000386496
0.00200519
4.26892e-05
0.00118325
-0.000192684
0.00033302
-0.000354516
-0.000511141
-0.000490375
-0.00130786
-0.000608711
-0.00207542
-0.000677332
-0.00279317
-0.00064256
-0.00339671
-0.000511608
-0.00367521
-0.000337721
-0.00362776
-8.1551e-05
-0.00356026
0.000140161
-0.00311556
0.000324684
-0.00267971
0.000504097
-0.00236235
0.00068239
-0.00210247
0.000849774
-0.00186436
0.00100409
-0.00165271
0.00114525
-0.00146709
0.00126976
-0.00129891
0.00137207
-0.00114262
0.0014482
-0.00100037
0.00149663
-0.000877473
0.0015165
-0.000777273
0.00150553
-0.000699151
0.00145819
-0.000638133
0.00136413
-0.000583278
0.00120385
-0.000509944
0.000929569
-0.000349042
0.000390752
0.000191201
-0.000380734
0.00188466
-0.000673327
0.00379958
-0.000551986
0.00482043
0.0049376
0.00155253
0.00172412
0.00245628
0.00500801
0.00324107
0.00537643
0.00351741
0.00525894
0.00325198
0.0049774
0.00270978
0.00433475
0.00211961
0.00346121
0.00160436
0.00252046
0.00120182
0.0015858
0.000868533
0.000666291
0.000596395
-0.00023902
0.000360697
-0.0010721
0.000127086
-0.00184163
-8.71136e-05
-0.0025787
-0.000206938
-0.00327662
-0.000192768
-0.00368919
-0.000118172
-0.00370224
6.76038e-05
-0.00374592
0.000217492
-0.00326532
0.000318814
-0.0027809
0.000427565
-0.00247097
0.000545434
-0.0022202
0.00065602
-0.00197481
0.000762924
-0.00175947
0.000870173
-0.00157418
0.000971638
-0.00140019
0.00105691
-0.00122768
0.00112005
-0.00106328
0.00116048
-0.000917659
0.00117882
-0.000795348
0.00117246
-0.000692527
0.00113232
-0.000597733
0.00104063
-0.000491322
0.000869167
-0.000338238
0.000554714
-3.43565e-05
-2.78201e-05
0.000773986
-0.000576587
0.00243365
-0.000698325
0.00392124
-0.000530653
0.00465253
0.00460673
-0.00138312
0.00339593
0.00138057
0.00224456
0.00371072
0.00304652
0.00431731
0.00465257
0.00417717
0.00511772
0.00374515
0.0047669
0.00323873
0.00396772
0.00276284
0.00299639
0.0023562
0.00199244
0.00199284
0.00102961
0.00163888
0.000114932
0.00129727
-0.000730425
0.000943144
-0.00148729
0.000582154
-0.00221737
0.000290542
-0.00298465
0.000161668
-0.00356009
0.000111039
-0.00365149
0.000206092
-0.00384088
0.000259337
-0.00331843
0.000254668
-0.00277609
0.000280661
-0.00249682
0.000325302
-0.00226471
0.000361947
-0.00201134
0.00040744
-0.00180484
0.000471403
-0.00163799
0.000540752
-0.00146935
0.000596888
-0.00128361
0.000632927
-0.00109911
0.000652686
-0.000937211
0.000661763
-0.000804221
0.000660115
-0.000690673
0.000636788
-0.000574193
0.00056364
-0.00041796
0.000381586
-0.000155981
2.22465e-05
0.000325175
-0.000480403
0.00127697
-0.000914328
0.00286806
-0.00148239
0.00448954
-0.00160246
0.00477263
0.00322158
0.0037644
0.00604644
0.00588837
0.00320484
0.0056913
0.00484988
0.00515674
0.0056525
0.00461375
0.00531007
0.00411358
0.00446801
0.003682
0.00342804
0.00332016
0.00235431
0.00299633
0.00135344
0.00263559
0.000475711
0.00221296
-0.000307669
0.00174373
-0.00101778
0.0012485
-0.00172172
0.000802958
-0.00253867
0.000535903
-0.00329274
0.000346364
-0.0034618
0.000336927
-0.00383136
0.000265341
-0.00324672
0.000131676
-0.00264229
6.39662e-05
-0.00242898
1.90951e-05
-0.00221973
-3.61667e-05
-0.00195598
-6.32995e-05
-0.00177759
-5.03846e-05
-0.00165073
-2.50287e-05
-0.00149451
-1.70057e-05
-0.00129145
-3.12278e-05
-0.00108473
-5.55412e-05
-0.000912773
-7.69282e-05
-0.000782721
-9.17673e-05
-0.000675708
-0.000112266
-0.00055354
-0.000171552
-0.000358504
-0.000315107
-1.22925e-05
-0.000544534
0.000554727
-0.000746738
0.00147944
-0.000801513
0.00292342
-0.00105464
0.00474338
-0.00133991
0.00505866
0.00211217
0.00745657
0.00733317
0.0052809
0.0070258
0.00474659
0.00618711
0.00444941
0.00560751
0.00417956
0.00473808
0.00395618
0.00365158
0.0037636
0.00254702
0.00355783
0.00155932
0.00328835
0.000745318
0.00290201
7.88847e-05
0.00239769
-0.000513136
0.00181504
-0.00113861
0.00124833
-0.00197147
0.000889357
-0.00293343
0.000562343
-0.00313463
0.000470291
-0.00373925
0.000243589
-0.00301989
-5.14061e-05
-0.00234715
-0.000219399
-0.00226087
-0.00036272
-0.00207633
-0.000528734
-0.00178988
-0.000643482
-0.00166269
-0.000690645
-0.00160337
-0.000722536
-0.00146244
-0.000785864
-0.00122802
-0.000878875
-0.000991695
-0.000976872
-0.000814792
-0.00105911
-0.000700488
-0.00111758
-0.000617187
-0.00115518
-0.000515805
-0.00117652
-0.000337017
-0.00117178
-1.69435e-05
-0.00111013
0.000493079
-0.000916644
0.00128597
-0.000459117
0.00246616
0.000264434
0.00402033
0.000631391
0.00469239
0.00297732
0.00167285
0.00586817
0.0026006
0.00609831
0.0027915
0.00599652
0.00303289
0.00536642
0.00326814
0.00450309
0.00345932
0.00346063
0.00358878
0.00241775
0.0036237
0.00152458
0.00353834
0.000830882
0.00328972
0.000327772
0.00283629
-5.93622e-05
0.00220384
-0.00050569
0.00154089
-0.00130804
0.00122679
-0.00261901
0.000707005
-0.00261466
0.000649885
-0.00368208
0.000232363
-0.00260224
-0.000355277
-0.00175937
-0.000575426
-0.0020406
-0.000784818
-0.00186686
-0.0011101
-0.0014645
-0.00134803
-0.00142459
-0.00144224
-0.00150897
-0.00151624
-0.00138836
-0.00166267
-0.00108165
-0.00186397
-0.00079056
-0.00206705
-0.000611874
-0.00223309
-0.000534537
-0.00234099
-0.000509231
-0.00237678
-0.000479845
-0.00232206
-0.000391517
-0.00214764
-0.000191223
-0.00182503
0.000170387
-0.00127884
0.000739549
-0.000400723
0.00158783
0.000792372
0.00282729
0.00143022
0.00405478
0.00464796
-0.00476292
-0.0101525
-0.00862219
-0.00853307
-0.00332939
0.000575524
-0.00150672
0.00427588
-4.36109e-05
0.00453369
0.00108398
0.00423916
0.00186537
0.00372197
0.00250848
0.00281777
0.00302441
0.00190204
0.00336409
0.00118511
0.0035209
0.000674305
0.00348321
0.000365726
0.00316642
0.000257773
0.00249018
0.000170966
0.00178045
-0.000597902
0.00175891
-0.00259718
0.000816407
-0.00167196
0.000899307
-0.00376492
0.000273447
-0.00197623
-0.000981295
-0.000504491
-0.00107437
-0.00194741
-0.00127997
-0.00166119
-0.0018404
-0.00090397
-0.00221937
-0.00104544
-0.00231209
-0.00141615
-0.00239383
-0.00130672
-0.00260597
-0.000869775
-0.00291557
-0.000481289
-0.00322994
-0.000297746
-0.00347292
-0.000291626
-0.00360831
-0.000373682
-0.00362556
-0.000462272
-0.0035138
-0.000502872
-0.0032443
-0.000460372
-0.00276951
-0.000304267
-0.00200314
-2.70516e-05
-0.00083928
0.000423463
0.000635878
0.00135162
0.00145221
0.00323807
0.00634969
-0.0100029
0.000340058
-0.0102517
-0.00828401
-0.00772384
-0.00195208
-0.00496504
0.00151731
-0.00270859
0.0022775
-0.000835858
0.00236671
0.00047121
0.00241518
0.00151924
0.00176997
0.00236498
0.00105654
0.00294865
0.000601679
0.00333958
0.000283622
0.00360256
0.00010302
0.00367882
0.000181825
0.00340764
0.000442492
0.00300877
-0.000198725
0.00257747
-0.00216565
0.00154101
-0.000635243
0.000758161
-0.00298197
-0.000137538
-0.00108034
-0.00151053
0.000868582
-0.00178929
-0.00166853
-0.00221166
-0.00123876
-0.00271859
-0.000396947
-0.00315064
-0.000613281
-0.00349242
-0.00107443
-0.0038
-0.000999405
-0.00406376
-0.000606396
-0.00428123
-0.000264173
-0.00445509
-0.000124068
-0.00458061
-0.000166046
-0.00465165
-0.00030232
-0.00465987
-0.000453512
-0.00458817
-0.000573908
-0.00441293
-0.000634916
-0.00409884
-0.000617804
-0.00355657
-0.000569066
-0.00252266
-0.000610684
-0.000750767
-0.000420896
0.000282252
0.00220441
0.00690116
0.000940194
-0.00722733
-0.0090622
-0.00743148
-0.00504483
-0.0025714
-4.9934e-05
0.00182667
0.00299108
0.00370192
0.00409612
0.00431099
0.00460481
0.00515907
0.00507623
0.00303207
0.00252459
-0.000327512
-0.00128905
-0.000308899
-0.00185585
-0.00297271
-0.00324855
-0.00373978
-0.00469122
-0.00556845
-0.00605445
-0.00619986
-0.00620633
-0.00625562
-0.00644212
-0.00678131
-0.00724316
-0.00776905
-0.00828144
-0.00874903
-0.00926231
-0.00958986
-0.00729593
)
;

boundaryField
{
    floor
    {
        type            calculated;
        value           nonuniform List<scalar> 
36
(
0
0
0
0
0
0
0
0
0
0
0
0
0
0
0
0
0
0
0
-1.11534e-05
-3.22779e-05
-4.21155e-05
-5.20374e-05
-5.63841e-05
-5.68613e-05
-5.80741e-05
-8.15944e-06
-1.51023e-05
-1.53014e-05
-1.48889e-05
-1.19751e-05
-2.24114e-05
-2.98717e-05
-3.29903e-05
-4.43456e-05
-3.59376e-05
)
;
    }
    ceiling
    {
        type            calculated;
        value           nonuniform List<scalar> 
43
(
-8.95751e-05
-0.000116225
-0.000116977
-0.000113164
-0.000108914
-0.00010646
-0.000106048
-0.000106371
-0.000107623
-0.000108898
-0.00011031
-0.000111568
-0.000111683
-0.000111438
-0.000115574
-0.000121225
-0.000127588
-0.000129774
-0.000118755
-0.000111605
-0.000121524
-0.000121849
-0.000121064
-0.000122115
-0.000123196
-0.00012245
-0.000120655
-0.000118913
-0.000117607
-0.000116595
-0.000115468
-0.000113817
-0.000111455
-0.000108453
-0.00010503
-0.00010141
-9.77096e-05
-9.39383e-05
-9.02633e-05
-9.69318e-05
-3.56886e-05
-3.72186e-05
-0.00020771
)
;
    }
    sWall
    {
        type            calculated;
        value           nonuniform List<scalar> 9(-0.000160666 -0.00019238 -0.000230004 -0.000267677 -0.000288412 -0.000332514 -0.000467588 -0.000489454 -0.000510299);
    }
    nWall
    {
        type            calculated;
        value           nonuniform List<scalar> 
14
(
-0.000131519
-0.000143891
-0.000145991
-0.000143663
-0.00016146
-0.000180737
-0.000199791
-0.000217297
-0.000230092
-0.000233118
-0.000240214
-0.000249884
-0.000269851
-0.000298589
)
;
    }
    sideWalls
    {
        type            empty;
        value           nonuniform 0();
    }
    glass1
    {
        type            calculated;
        value           nonuniform List<scalar> 9(-8.22684e-05 -0.000208595 -0.000306874 -0.000387284 -0.000456188 -0.000517508 -0.000572532 -0.000628028 -0.000694057);
    }
    glass2
    {
        type            calculated;
        value           nonuniform List<scalar> 2(-0.000548751 -0.000575591);
    }
    sun
    {
        type            calculated;
        value           uniform 0;
    }
    Table_master
    {
        type            calculated;
        value           nonuniform List<scalar> 9(-1.58451e-07 -1.58485e-07 -1.5848e-07 -1.58473e-07 -1.58459e-07 -1.58423e-07 -1.5835e-07 -1.58241e-07 -1.58076e-07);
    }
    Table_slave
    {
        type            calculated;
        value           nonuniform List<scalar> 9(1.58434e-07 1.58502e-07 1.58493e-07 1.58471e-07 1.58443e-07 1.58408e-07 1.58367e-07 1.58321e-07 1.58261e-07);
    }
    inlet
    {
        type            calculated;
        value           uniform -0.0115848;
    }
    outlet
    {
        type            calculated;
        value           nonuniform List<scalar> 2(0.0153832 0.0123925);
    }
}


// ************************************************************************* //
