/*--------------------------------*- C++ -*----------------------------------*\
  =========                 |
  \\      /  F ield         | OpenFOAM: The Open Source CFD Toolbox
   \\    /   O peration     | Website:  https://openfoam.org
    \\  /    A nd           | Version:  6
     \\/     M anipulation  |
\*---------------------------------------------------------------------------*/
FoamFile
{
    version     2.0;
    format      ascii;
    class       surfaceScalarField;
    location    "600";
    object      phi;
}
// * * * * * * * * * * * * * * * * * * * * * * * * * * * * * * * * * * * * * //

dimensions      [1 0 -1 0 0 0 0];

internalField   nonuniform List<scalar> 
1482
(
-0.00245768
0.00253186
-0.00228241
-0.000175171
-0.00181506
0.00453746
-0.00225493
-2.738e-05
-0.00228323
0.00029309
-0.00139332
0.00620917
-0.00235859
0.000103753
-0.00254295
0.000232432
-0.00212208
0.00102194
-0.00105709
0.00761654
-0.00250838
0.000149876
-0.00275578
0.000316677
-0.00256014
0.000670588
-0.00190652
0.00187147
-0.000790181
0.00881885
-0.00265664
0.000148356
-0.00296235
0.000356533
-0.00286234
0.000618965
-0.00243514
0.0011993
-0.00170394
0.00278532
-0.000603651
0.00989007
-0.00277689
0.000120328
-0.00315116
0.000337252
-0.00312127
0.000615545
-0.0027846
0.000968517
-0.00226253
0.00175799
-0.00157962
0.0037614
-0.000673276
0.0110812
-0.00285012
7.33199e-05
-0.00330763
0.000276877
-0.00334578
0.000561852
-0.00306956
0.000900586
-0.00261794
0.00132403
-0.00208785
0.00226631
-0.00166225
0.00475047
-0.000634645
0.0122839
-0.00285923
9.19099e-06
-0.00341834
0.000184107
-0.00353252
0.000463695
-0.00331049
0.000802871
-0.00289937
0.0011821
-0.00240123
0.00163751
-0.00195037
0.00255452
-0.0015936
0.00570953
0.00308308
0.00982793
-0.00278506
-7.40964e-05
-0.0034713
6.22254e-05
-0.0036753
0.000326967
-0.0035115
0.000664797
-0.00313814
0.00104173
-0.00264602
0.00142699
-0.00215086
0.0018381
-0.00167336
0.00263439
0.00184707
0.00694563
0.00393709
0.0060379
-0.00261024
-0.000174746
-0.00345794
-8.73781e-05
-0.00376755
0.000154561
-0.00367141
0.000486957
-0.00334194
0.000868693
-0.00286127
0.00125708
-0.00232421
0.00160044
-0.00180481
0.00196965
5.95635e-05
0.004422
0.0033112
0.00757161
0.00207625
0.00413622
-0.0023232
-0.00028697
-0.00336977
-0.000262843
-0.00380431
-5.05433e-05
-0.0037868
0.000270041
-0.00351112
0.000656225
-0.00305416
0.00106167
-0.00249809
0.00143106
-0.00191772
0.00171345
-0.000972977
0.0030023
0.00175994
0.00597336
0.00275728
0.00689068
0.00115155
0.00319186
-0.00189549
-0.000427644
-0.00318932
-0.00046735
-0.00377967
-0.000287404
-0.00385317
1.59099e-05
-0.00364279
0.000401807
-0.00322324
0.000825408
-0.00266909
0.00123278
-0.00205054
0.00156399
-0.00135275
0.00209333
0.000410117
0.00435223
0.00239474
0.006336
0.0022488
0.00579353
0.00125609
0.00217616
-0.00119887
-0.000696548
-0.00289836
-0.00071854
-0.00368617
-0.000560775
-0.00386714
-0.000273355
-0.003733
0.000106212
-0.00336402
0.000542681
-0.00283003
0.000986453
-0.00219707
0.00137942
-0.00151245
0.0017238
-0.000469223
0.00297278
0.00166255
0.00508452
0.00269978
0.00588511
0.00227741
0.00477229
-0.000904692
0.00334207
-0.00119264
-0.00257958
-0.00101526
-0.00353367
-0.000870957
-0.00382945
-0.000598375
-0.00377827
-0.000227999
-0.00347104
0.000213333
-0.00297307
0.000685819
-0.00234481
0.0011343
-0.00165354
0.00152061
-0.000882613
0.0021373
0.0007739
0.00386152
0.00256274
0.00522166
0.00311161
0.00505101
0.00151384
0.00235385
0.00364682
-0.00265998
-0.00111217
-0.00337323
-0.00117563
-0.0037508
-0.000949522
-0.00377938
-0.000597175
-0.00353958
-0.000159365
-0.00309062
0.000330984
-0.00248317
0.000824281
-0.0017914
0.00127228
-0.00106456
0.00170267
4.51465e-05
0.00286615
0.00200379
0.00442057
0.003412
0.00492137
0.00365483
0.00291011
0.00600989
-0.00166542
-0.000983398
-0.00312239
-0.00136293
-0.0036382
-0.00128815
-0.0037385
-0.000990307
-0.00356797
-0.000568686
-0.00317594
-7.394e-05
-0.00260387
0.000451793
-0.00191969
0.000952675
-0.00121137
0.00141921
-0.000386207
0.00213414
0.00128761
0.00358243
0.00314893
0.00468373
0.00431562
0.00426066
0.00603615
0.00288394
-0.000630512
-0.00102368
-0.00261831
-0.00148741
-0.00342953
-0.00157152
-0.00364704
-0.00137952
-0.00355245
-0.00100573
-0.00322492
-0.000519601
-0.00269865
2.09493e-05
-0.00203392
0.000566137
-0.00133504
0.00107646
-0.000613685
0.0016468
0.0006441
0.00277775
0.00258294
0.00414851
0.00421071
0.00478873
0.0059816
0.00431531
0.0078251
0.00660029
-0.000602468
-0.00182772
-0.0018142
-0.00308752
-0.00182934
-0.00347765
-0.00174082
-0.00348194
-0.00144993
-0.00323218
-0.000998366
-0.00276121
-0.000456937
-0.0021321
0.000119242
-0.00143953
0.000670742
-0.000754323
0.00121722
0.000199101
0.00209191
0.0019493
0.00341149
0.00377666
0.00458265
0.00547161
0.00529881
0.00566326
0.00647714
0.00212503
0.0046213
-0.00240627
-0.00281598
-0.00208566
-0.00324164
-0.00206526
-0.00334473
-0.00187793
-0.00318689
-0.00149512
-0.00278702
-0.000972448
-0.00220495
-0.000383972
-0.00152851
0.000208335
-0.000850021
0.000766558
-7.26593e-05
0.0014891
0.00140163
0.00263967
0.00324102
0.00394722
0.00492544
0.00512891
0.00525815
0.00570393
0.00321501
0.00538711
-0.0028199
0.00836934
-0.000928079
-0.00329697
-0.00192522
-0.0030349
-0.00229232
-0.00315069
-0.00225921
-0.00308036
-0.00198436
-0.00276523
-0.0015168
-0.00224304
-0.000934254
-0.0015961
-0.000316272
-0.000918399
0.000276826
-0.000222606
0.000916622
0.000993045
0.00189779
0.00272873
0.00315206
0.00439939
0.00447335
0.00501715
0.00536995
0.00345221
0.00546668
-0.000908075
0.0034752
0.00276995
-0.00832067
-0.00693955
0.00952802
-0.00351649
-0.00190213
-0.00136968
-0.00271654
-0.0022435
-0.00291085
-0.00253207
-0.00291081
-0.00242866
-0.00268755
-0.00206193
-0.00223835
-0.00152137
-0.00163348
-0.00089676
-0.000962521
-0.000272043
-0.000284505
0.000338835
0.00072008
0.00118969
0.00230753
0.00231908
0.00393416
0.00361737
0.00473657
0.00475399
0.00368981
0.00513233
0.000561902
0.00399665
-0.00444122
0.000976855
-0.0082456
0.00897329
-0.00776585
-0.00890845
0.00552659
0.000476724
-0.00132491
-0.00105388
-0.0021029
-0.00198325
-0.0025343
-0.00261996
-0.00266559
-0.00277719
-0.00254802
-0.00256809
-0.00218519
-0.00211499
-0.00163486
-0.00151989
-0.000981865
-0.000877314
-0.00029192
-0.000264533
0.00057169
0.000487327
0.00199805
0.00149925
0.00356139
0.00269194
0.00448974
0.00386428
0.0039238
0.00452002
0.00162392
0.00407028
-0.00244555
0.00200098
-0.00779671
0.00143093
-0.00212236
0.000425425
7.57825e-05
-4.1068e-05
-0.000689449
-0.000594341
-0.00149368
-0.00166303
-0.00199859
-0.00251888
-0.00230367
-0.00298179
-0.00233274
-0.00299237
-0.00208008
-0.00267308
-0.00159917
-0.00215057
-0.000976522
-0.00152513
-0.00028084
-0.000888304
0.000527458
-0.000220218
0.00177655
0.000708911
0.00328112
0.0017796
0.00430163
0.00288012
0.00411485
0.00367328
0.00242163
0.00372233
-0.000665841
0.00229058
-0.00566975
-0.0010502
0.0014956
-0.000198787
0.000233549
-0.000317867
-0.000136822
-0.000234707
-0.000863974
-0.00122398
-0.00140272
-0.00225882
-0.00181143
-0.00301104
-0.00201636
-0.00329807
-0.00191404
-0.00315831
-0.00152842
-0.00274371
-0.00095236
-0.00217462
-0.000264848
-0.00154103
0.000529946
-0.000890714
0.00162419
-6.77786e-05
0.00306384
0.000926272
0.00415381
0.00192751
0.0042711
0.00272394
0.00307798
0.00301698
0.000700391
0.00235615
-0.00326656
-0.00104108
-0.000224665
0.00152141
-0.000472376
0.000388101
-0.000482144
0.000277069
6.83079e-05
-0.000305145
-0.000793468
-0.000808756
-0.00181787
-0.00124697
-0.00282319
-0.00158331
-0.003444
-0.00166636
-0.00354565
-0.00141967
-0.00326694
-0.000916045
-0.0027799
-0.000256247
-0.00218312
0.000526967
-0.00153796
0.00152695
-0.000793393
0.00285598
0.000140163
0.00401128
0.00106889
0.00437039
0.00182829
0.00364582
0.00215617
0.00169274
0.0020247
-0.00080804
-0.00126604
-1.13668e-05
0.00106037
-0.000516588
0.000422593
-0.000563605
0.000669127
0.000171599
0.000171091
-0.000407863
-0.000280569
-0.00132158
-0.000694679
-0.00237009
-0.00106658
-0.00333985
-0.00131104
-0.00379923
-0.00125455
-0.00371066
-0.000868356
-0.0033145
-0.000262287
-0.00277374
0.000493313
-0.00214936
0.00143117
-0.0014421
0.00263918
-0.000576505
0.00382601
0.000325517
0.00438233
0.00105704
0.00406696
0.00140724
0.00257816
0.00127085
0.00131218
-0.00127768
-4.42162e-05
0.000588011
-0.000442974
0.00030201
0.000646803
2.22228e-05
0.000534647
-0.000191894
0.000165421
-0.000853773
-0.00020616
-0.00181001
-0.000565224
-0.00287138
-0.00085926
-0.00379155
-0.000993108
-0.00406058
-0.000792883
-0.00378601
-0.000282638
-0.00329403
0.000421939
-0.00270225
0.00130191
-0.00202
0.00240484
-0.00120766
0.00357088
-0.000321276
0.00428867
0.000419279
0.00430412
0.00081998
0.00322256
0.000762944
0.00267543
-0.00132202
-3.8413e-05
0.0001835
-0.000177148
0.000479345
0.000669027
-2.23228e-05
0.000711067
-0.00015413
0.000518835
-0.000545226
0.000202597
-0.00126244
-0.00012478
-0.00225038
-0.000421785
-0.00330878
-0.000622328
-0.00416226
-0.000636657
-0.0042167
-0.000301287
-0.00376723
0.000316455
-0.00318841
0.00112617
-0.00252639
0.00213521
-0.00175026
0.00325268
-0.00088936
0.00408905
-0.000121546
0.00434981
0.000373693
0.0036158
0.000426853
0.00352902
-0.00136042
3.94912e-05
-3.3131e-05
-5.64426e-05
0.000535969
0.000650667
1.82602e-05
0.000796026
-0.000107214
0.000742674
-0.000377887
0.00053607
-0.000878607
0.00024996
-0.0016371
-4.00006e-05
-0.00263209
-0.000262409
-0.00366863
-0.000361167
-0.00443767
-0.000256376
-0.0042615
0.000195725
-0.00364637
0.00090664
-0.00296876
0.00181725
-0.00220831
0.00286623
-0.00136371
0.00376996
-0.00057016
0.00417234
5.6046e-05
0.00380229
0.000187315
0.00404533
-0.00132085
7.33489e-05
-0.000162969
-2.0529e-05
0.000556683
0.000563593
8.69717e-05
0.000838357
-2.40044e-05
0.000883278
-0.000247737
0.000778629
-0.000620354
0.000564895
-0.00119345
0.00029932
-0.00197633
5.1797e-05
-0.00294621
-9.25257e-05
-0.0039372
-8.75135e-05
-0.00460644
0.000126166
-0.00419182
0.000666084
-0.00340569
0.00145253
-0.00260391
0.00240525
-0.00174721
0.00332499
-0.000918622
0.00379492
-0.000192621
0.00379458
6.38765e-05
0.00432121
-0.00124743
7.40268e-05
-0.000257562
2.85093e-05
0.000528361
0.000371502
0.000191983
0.000843669
8.1723e-05
0.000982043
-0.00012269
0.000955154
-0.000424167
0.000812231
-0.000867591
0.000590161
-0.00148419
0.000345989
-0.00227043
0.000149274
-0.00318792
8.01047e-05
-0.00410473
0.000185186
-0.00466537
0.00047946
-0.00400507
0.00106951
-0.00302253
0.00187966
-0.0020782
0.00276221
-0.0011843
0.00333208
-0.000455674
0.00369458
-9.25106e-05
0.00447261
-0.00117333
9.00326e-05
-0.000319083
9.52421e-05
0.00043331
1.15919e-05
0.000359797
0.000828885
0.000206826
0.00106343
4.0765e-07
0.0010948
-0.000262244
0.00100668
-0.000618518
0.000829207
-0.00110653
0.000601543
-0.00173964
0.000383267
-0.00250431
0.000238778
-0.00334648
0.000242257
-0.00416171
0.000440326
-0.00462614
0.000763038
-0.00369848
0.00133923
-0.00248198
0.00209372
-0.00140959
0.00281388
-0.000665996
0.00352298
-0.000283968
0.00446647
-0.00108323
0.000121866
-0.000345657
0.000189805
0.000243696
-0.000273783
0.000285253
0.000856418
0.000332315
0.00115261
0.000117717
0.00122067
-0.000125373
0.00116824
-0.000423697
0.00102615
-0.000815359
0.00081832
-0.0013232
0.000589942
-0.00194619
0.000398975
-0.00266437
0.000298968
-0.00340307
0.000370363
-0.00409164
0.000647107
-0.00451011
0.000925289
-0.00328442
0.0013877
-0.00177583
0.00216691
-0.000762512
0.00326562
-0.000408542
0.00426756
-0.00096127
0.000179394
-0.000335155
0.000361394
-0.000117559
-0.000455148
0.000181283
0.000816645
0.000325105
0.00127614
0.000208862
0.00135349
-1.50071e-05
0.00131531
-0.000272345
0.00119433
-0.000591759
0.00100351
-0.00100044
0.000769631
-0.00150276
0.000543296
-0.00209037
0.000375126
-0.00274037
0.000305342
-0.0033379
0.000432836
-0.00387726
0.000782871
-0.0043676
0.000921345
-0.00281796
0.00136992
-0.000978733
0.00287621
-0.000372996
0.00394295
-0.000781771
0.000292127
-0.000265779
0.000645206
-0.000762715
-0.000647471
0.000192237
0.000759042
0.000239001
0.00138995
0.000211377
0.00150782
5.46117e-05
0.00146281
-0.000162405
0.00134629
-0.000424194
0.00116597
-0.000754096
0.000928732
-0.00115941
0.000670325
-0.00162965
0.000443685
-0.00215877
0.000288564
-0.00272342
0.000231596
-0.00313652
0.000401903
-0.00349619
0.000884335
-0.0043305
0.00090659
-0.00235453
0.00229045
-0.000392876
0.00365306
-0.000489525
0.000500026
-0.00012056
0.000766959
-0.00152934
-0.000350164
-0.000531131
0.0002339
0.000809777
0.000141629
0.0015013
0.000127743
0.0016658
5.34866e-05
0.00161761
-0.000100089
0.00149146
-0.000307465
0.00131327
-0.000571379
0.00107378
-0.000899017
0.000788145
-0.0012771
0.000500759
-0.00168658
0.000265338
-0.0021354
0.000114359
-0.00260604
5.58437e-05
-0.00279032
0.000232092
-0.00284384
0.000977611
-0.00440146
0.00149127
-0.00155526
0.00334313
1.06129e-05
0.000663448
-1.69673e-05
0.00050125
-0.00238051
-0.000354187
-0.000236883
6.0016e-05
0.00106756
-2.3737e-05
0.00165809
-1.50305e-05
0.00181821
-2.45686e-05
0.00177098
-9.97815e-05
0.00163356
-0.000242079
0.00145
-0.000444074
0.00120884
-0.000706313
0.000903433
-0.00101417
0.00056092
-0.00133713
0.000233297
-0.00165443
-2.16865e-05
-0.00199926
-0.000156534
-0.00239356
-0.000247446
-0.00231066
-0.000197468
-0.00166864
0.000389348
-0.00329949
0.00187244
0.00067414
0.000418537
6.58658e-05
0.00041438
-0.00314882
0.000159282
3.48586e-05
-0.000430932
0.00143628
-0.00030853
0.00184348
-0.000208991
0.00196664
-0.000163363
0.00191208
-0.000165562
0.00176676
-0.000232873
0.00157637
-0.000368335
0.00133437
-0.000569477
0.00101835
-0.000821103
0.000633323
-0.00108646
0.0002195
-0.00132325
-0.000158631
-0.00151745
-0.000419161
-0.00173663
-0.000486065
-0.00215492
-0.000789811
-0.00171823
-0.000876972
-0.000402201
-0.0013414
0.00109277
0.000232173
0.000248215
-7.85949e-05
-0.00291069
0.0013426
-0.00126652
0.00168613
-0.000680639
0.00198183
-0.000446746
0.00210242
-0.000344668
0.00203702
-0.000288208
0.0018828
-0.000281498
0.0016873
-0.00034369
0.00144683
-0.000480673
0.00112997
-0.000680974
0.000719298
-0.000906966
0.000236014
-0.0011029
-0.000259484
-0.00122238
-0.000677379
-0.00125927
-0.000881536
-0.00134124
-0.000958928
-0.00198586
-0.00168237
-0.000912783
-0.00166186
0.00132504
-0.000124078
0.000293813
-0.00153195
0.00156167
-0.00114194
0.00199431
-0.000693002
0.00220485
-0.000549073
0.00214618
-0.000453731
0.00197728
-0.000382579
0.00177561
-0.000369682
0.00153912
-0.000435858
0.00123051
-0.000581081
0.000812997
-0.000774559
0.000282861
-0.000953735
-0.000311293
-0.00105106
-0.000881345
-0.00101845
-0.00129959
-0.000841308
-0.00144327
-0.000857033
-0.00222359
-0.00144474
-0.00249363
0.00120105
-0.0012116
0.00246236
-0.000854537
0.00172715
-0.000874673
0.00224496
-0.000733024
0.0022401
-0.000642902
0.00204744
-0.000523781
0.00183443
-0.000441288
0.00160315
-0.000433592
0.00130809
-0.000513312
0.000902072
-0.000670037
0.000351041
-0.000842645
-0.000317798
-0.000947175
-0.00101697
-0.000915432
-0.00163122
-0.000686859
-0.00203159
-0.000253073
-0.00264445
-0.000436297
-0.00385887
0.00290986
-0.000404216
0.00152787
-0.000655157
0.00217231
-0.000801923
0.00232338
-0.000816206
0.00209123
-0.000686592
0.00185206
-0.000541294
0.00163249
-0.000470504
0.00134989
-0.000475262
0.000967635
-0.000578747
0.000424359
-0.000743239
-0.000291868
-0.000868478
-0.00109329
-0.000870777
-0.00185743
-0.000689163
-0.00247588
-0.00024255
-0.00301199
0.000114435
-0.00421821
0.0030652
0.00111818
5.57841e-06
0.0020312
-0.000513964
0.0023668
-0.00084526
0.00211807
-0.000842951
0.00179086
-0.000625288
0.00161683
-0.000525507
0.00134798
-0.00046847
0.000985771
-0.000493267
0.000477915
-0.000632168
-0.000250894
-0.000784072
-0.00112789
-0.000833727
-0.00199738
-0.000730678
-0.00274076
-0.000424139
-0.00327951
2.50662e-05
-0.00402855
0.00430493
0.00147377
0.000563104
0.00229438
-0.000441456
0.0022635
-0.000990606
0.00149183
-0.000543826
0.00150526
-0.000513603
0.0012972
-0.000474602
0.000935048
-0.000417614
0.000473194
-0.000488407
-0.00021958
-0.000663317
-0.00113543
-0.000776335
-0.00208014
-0.000750737
-0.00288763
-0.000583567
-0.00346161
-0.000241804
-0.00392828
0.00590048
0.00178288
0.00107469
0.00186934
-4.71806e-05
0.000363112
0.000138192
0.00105125
-8.97634e-05
0.00114566
-0.00036194
0.00079885
-0.000338269
0.000343908
-0.000288197
-0.000241246
-0.000466593
-0.00112521
-0.000673335
-0.00211655
-0.000739664
-0.00298208
-0.000655975
-0.00361187
-0.00043298
-0.00409439
0.00812578
0.000287568
0.00265655
-0.0022008
0.00251705
-1.531e-05
0.00120466
0.000611315
0.000444561
0.000386316
5.07344e-05
-3.20023e-05
3.77783e-05
-0.000383269
-0.000146073
-0.00110552
-0.000486151
-0.00209673
-0.000692914
-0.00303216
-0.00068924
-0.00374379
-0.000523665
-0.00445163
0.00887797
-0.0037569
0.00421283
-0.00103897
0.00354095
8.40781e-05
0.00173156
-0.000178519
0.0010092
-0.000644664
0.000663715
-0.000676115
0.000330762
-0.00108715
-0.00016441
-0.00200183
-0.000580904
-0.0030091
-0.000715642
-0.00384875
-0.000583847
-0.00490011
0.00524048
-0.00146149
0.00463562
0.000332657
0.0032923
-0.000398453
0.00195106
-0.00122958
0.00159431
-0.00103591
0.00102391
-0.00107789
0.00032152
-0.00181603
-0.000350187
-0.00288416
-0.000705576
-0.00390917
-0.000654772
-0.00540997
0.00391277
0.000579884
0.00438847
0.000290923
0.00260249
-0.0018597
0.00258102
-0.00145489
0.00201386
-0.00105652
0.00100272
-0.00155065
5.6019e-05
-0.00264164
-0.00059258
-0.00390689
-0.000707478
-0.00599255
0.00463649
0.000760133
0.00391894
-0.00249575
0.0032381
-0.00213653
0.00326311
-0.000973801
0.00193166
-0.00119283
0.00064481
-0.00226283
-0.00032289
-0.00381905
-0.000680179
-0.00663019
0.00555416
-0.002355
0.00377769
-0.00342073
0.00452265
-0.000765809
0.00305572
-0.000653346
0.00139231
-0.0017436
0.000125282
-0.00360951
-0.000532427
-0.00724324
0.00337793
-0.00377737
0.00413464
-0.000284375
0.00404172
0.000133188
0.00226953
-0.00100555
0.000653982
-0.00321417
-0.000270373
-0.00771129
-0.00019886
0.000451189
0.00339962
0.00109622
0.00307914
7.06168e-05
0.00119327
-0.00257153
1.07813e-05
-0.00791986
0.000459875
0.00156331
0.002933
0.00126781
0.00188207
-0.00151616
0.000137389
-0.00784963
0.00223623
0.00149315
0.00270785
0.000243844
0.000121752
-0.00765512
0.00394724
0.00113989
0.00181175
-0.00747851
0.00531107
-0.00561408
)
;

boundaryField
{
    floor
    {
        type            calculated;
        value           nonuniform List<scalar> 
36
(
0
0
0
0
0
0
0
0
0
0
0
0
0
0
0
0
0
0
0
-1.045e-05
-2.64212e-05
-3.59274e-05
-4.10938e-05
-4.60456e-05
-4.31762e-05
-4.36728e-05
-6.16778e-06
-1.11039e-05
-1.11657e-05
-1.11546e-05
-9.3241e-06
-1.68093e-05
-2.00396e-05
-2.38471e-05
-2.44213e-05
-2.51073e-05
)
;
    }
    ceiling
    {
        type            calculated;
        value           nonuniform List<scalar> 
43
(
-8.53978e-05
-0.000116788
-0.000134533
-0.000134802
-0.000125906
-0.000112536
-0.000102277
-9.54143e-05
-9.22981e-05
-9.05393e-05
-8.93511e-05
-8.84532e-05
-8.74216e-05
-8.62739e-05
-8.4967e-05
-8.38344e-05
-8.30134e-05
-8.28554e-05
-8.44799e-05
-8.56478e-05
-8.16666e-05
-8.10267e-05
-7.95701e-05
-7.69813e-05
-7.51883e-05
-7.50701e-05
-7.54843e-05
-7.54412e-05
-7.48225e-05
-7.35972e-05
-7.18198e-05
-6.95799e-05
-6.70611e-05
-6.4503e-05
-6.20761e-05
-5.97993e-05
-5.74883e-05
-5.51274e-05
-5.28239e-05
-5.49034e-05
-5.7833e-06
-9.12329e-06
-0.000146041
)
;
    }
    sWall
    {
        type            calculated;
        value           nonuniform List<scalar> 9(-0.000146963 -0.000174485 -0.000207095 -0.000240291 -0.000261125 -0.000298869 -0.00061732 -0.000703136 -0.000605953);
    }
    nWall
    {
        type            calculated;
        value           nonuniform List<scalar> 
14
(
-0.000111563
-0.000121452
-0.00012169
-0.000119369
-0.000133695
-0.000143805
-0.000157869
-0.000179042
-0.000200366
-0.000206901
-0.000212722
-0.000217703
-0.000223916
-0.000248125
)
;
    }
    sideWalls
    {
        type            empty;
        value           nonuniform 0();
    }
    glass1
    {
        type            calculated;
        value           nonuniform List<scalar> 9(-7.4081e-05 -0.00019044 -0.000278299 -0.000350185 -0.000412033 -0.000467479 -0.000517819 -0.000567896 -0.000627054);
    }
    glass2
    {
        type            calculated;
        value           nonuniform List<scalar> 2(-0.000442358 -0.000464597);
    }
    sun
    {
        type            calculated;
        value           uniform 0;
    }
    Table_master
    {
        type            calculated;
        value           nonuniform List<scalar> 9(-1.5633e-07 -1.56398e-07 -1.56442e-07 -1.56487e-07 -1.56545e-07 -1.56628e-07 -1.56708e-07 -1.56666e-07 -1.5643e-07);
    }
    Table_slave
    {
        type            calculated;
        value           nonuniform List<scalar> 9(1.56073e-07 1.56153e-07 1.56185e-07 1.56224e-07 1.5629e-07 1.5642e-07 1.56704e-07 1.56728e-07 1.56655e-07);
    }
    inlet
    {
        type            calculated;
        value           uniform -0.0115414;
    }
    outlet
    {
        type            calculated;
        value           nonuniform List<scalar> 2(0.011633 0.0139202);
    }
}


// ************************************************************************* //
