/*--------------------------------*- C++ -*----------------------------------*=========                 |
  \      /  F ield         | OpenFOAM: The Open Source CFD Toolbox
   \    /   O peration     | Website:  https://openfoam.org
    \  /    A nd           | Version:  6
     \/     M anipulation  |
\*---------------------------------------------------------------------------*/
FoamFile
{
    version     2.0;
    format      ascii;
    class       volScalarField;
    location    "600";
    object      PMV;
}
// * * * * * * * * * * * * * * * * * * * * * * * * * * * * * * * * * * * * * //

dimensions      [0 0 0 0 0 0 0];

internalField   nonuniform List<scalar> 
458
(
1.3238560648345232
1.0778476341377992
1.0446550323647457
1.015721023801308
0.9972112627685956
0.989063010531994
0.9915817151842949
1.0058142513902868
1.0350447223263128
1.0831068023166448
1.1537610283389212
1.2240603673684196
1.2398153711496624
1.2484086718388754
1.2603433995547093
1.3753657252099236
1.3620050951753657
1.3581876159447472
1.3648681594262737
1.3696398462355353
1.3734571166209555
1.3690606503080474
1.3652516170484246
1.3662281229889754
1.368135963897666
1.37066506024995
1.3744091050687424
1.3787794219302323
1.385235945733453
1.396520800176251
1.4049468178876912
1.4092404703765815
1.4235519258092826
1.2563571714292876
1.089301111567139
1.0773246442513769
1.0487791984833166
1.031934186796105
1.0234841874916716
1.0245736348576149
1.032943976868767
1.0472578151312246
1.0719382732568181
1.1123180949024118
1.1737140080794044
1.2364734666893409
1.247453872742183
1.2544701691124425
1.212154005024948
1.211885294154873
1.2341008055811649
1.3290599492261843
1.3491208308438105
1.348643621156282
1.3562788507185268
1.3591061793891797
1.358739820515701
1.3588114799443578
1.359968099996612
1.3611564107194472
1.3614392515505964
1.3618860714048318
1.3631744624952131
1.3643037902554611
1.3674251680650937
1.3760361553433904
1.384431370580593
1.3911110562404807
1.3745788573963187
1.2875960058507485
1.080290385595261
1.1100222289730577
1.0948961053903228
1.08762731130976
1.084010291681691
1.0838894211721113
1.0807649757953166
1.0670768895864344
1.0558744144126255
1.0666821724538342
1.1155051919650933
1.2076686303672748
1.2541374019102056
1.2603433995547093
1.2632076610222793
1.264183744274113
1.2448797833076861
1.2394161393869216
1.303589693777121
1.312797715813321
1.3216480912191277
1.3324187210032268
1.3365156424613487
1.3590837949740968
1.3734571166209555
1.3734571166209555
1.3734571166209555
1.3739342704373387
1.3739342704373387
1.3744114231418998
1.3748885747332473
1.3777514608236323
1.3810914434670905
1.3740480378180595
1.3015832377977785
1.3623988165480987
1.073979343269806
1.1336485830601841
1.1440193046202165
1.1616053550851722
1.1731532997222103
1.1751372321556837
1.1510178207426744
1.0941873408662002
1.040592267754222
1.0281421118391856
1.0742182008737244
1.1670558150840562
1.260158779855268
1.274187060053147
1.2751417698444978
1.2492486767965476
1.2250472465280111
1.1741984311099183
1.2408719906508536
1.2767979674815182
1.3027446747946418
1.3328470087825446
1.367433081196266
1.3940663788087124
1.3878357614204326
1.3820947135467643
1.3809069957463131
1.3820938723219525
1.384600859607627
1.3916323151405985
1.40480476209989
1.4280488593541871
1.4270084727398475
1.4125799096310032
1.3538915724076328
1.2570404587086954
1.4565014028040815
1.0822499673429533
1.1511739864448371
1.1885037513071885
1.2435134869634867
1.2907664318211167
1.2995223563138463
1.2271967090047
1.116071745945319
1.0264688883083255
0.9995325311966878
1.048126549716809
1.14261477323773
1.2463510939191949
1.2937579316470937
1.2956672068710664
1.2838984638145412
1.2555059641572799
1.2540649192135527
1.2698483243063945
1.3012655782564198
1.3416215445867703
1.3834724148085908
1.4238249737599402
1.4512174760434084
1.4634106566988463
1.4642924639627137
1.4634140673955647
1.4621670142046261
1.459249788054925
1.4567095984122957
1.4564984850222311
1.4556671511603263
1.440378241095772
1.4139524937643373
1.3383480899968603
1.3387771470803786
1.3362367107120088
1.42084156470258
1.29927488848814
1.5541120402601225
1.112368775164391
1.1819095386840484
1.2205474447633125
1.3051491209381234
1.3810914434670905
1.4178274779265518
1.256875123489103
1.114903970381488
1.009839966845699
0.9792212010348245
1.0320117398754147
1.1383714344506592
1.2576767198655303
1.3214409963130147
1.3276453872920406
1.3252591024569138
1.3266908762809029
1.3382837824896634
1.3588170461976206
1.3929921810317911
1.4245059828236215
1.4521713810423371
1.4745865586169664
1.4912766664963597
1.503197059448913
1.5108256105480224
1.5151164957624965
1.5170235150385738
1.5160700085529555
1.5113023818245426
1.5046274428336088
1.4869149408660072
1.4574513765788386
1.420411233142264
1.3495992583356922
1.3432709321294638
1.3361377209338081
1.3611273970886169
1.3694250396316527
1.6464678866190672
1.1991816329492209
1.3012631351251567
1.2790585823272578
1.3340001349941448
1.413534024085249
1.3489259579194313
1.2266727268570232
1.084666587370778
0.9803165220873374
0.9601733052522602
1.0320577583978123
1.161023292050298
1.3044738509368141
1.3600963641268484
1.3710713309117477
1.3715484902658075
1.3772743159416132
1.395405019694486
1.4211667611707117
1.449309649811545
1.4760172090081156
1.4984290156001292
1.5160700085529555
1.5279883820336464
1.5351389220899985
1.5389523924621158
1.5403824165214783
1.5394290688102314
1.536092299589691
1.5294185193774796
1.520360737890384
1.509872063324082
1.4925759281067814
1.4481694825065048
1.3859572983435264
1.3566497741429697
1.3361149981889606
1.3079568194474906
1.414080386734308
1.787067532021769
1.5724362256742364
1.514402893935438
1.3976940787817826
1.3760281539411736
1.3650890393381674
1.293674433356602
1.1519988177106448
1.0027636869629943
0.9210647689703324
0.9417952617676673
1.0599022623016292
1.2295355936979069
1.3691626824768464
1.410194601997699
1.422120830807569
1.4268911031509075
1.43690825819136
1.4564638861841688
1.4803090824251521
1.503197059448913
1.523221152570307
1.538475714454727
1.5484856018127335
1.5546818252679964
1.5570649110442758
1.5575415230259801
1.556588297335623
1.5537285789195172
1.5494388856992223
1.5432424196491419
1.5346622308713427
1.5241746113333785
1.5122559196982681
1.4989058268248774
1.4841239823664403
1.474326142064125
1.4468748485603067
1.3678470387761872
1.2817549004492346
1.9961441757938194
1.848680321007574
1.6869273707146408
1.5440307538694351
1.451944663036111
1.3800433657951765
1.1857458005116615
0.9666746349276152
0.835300412857296
0.835743319004839
0.9538513999660321
1.1592448918443943
1.354370068537547
1.4340462720996598
1.463617814038654
1.4760172090081156
1.484600838286745
1.4969985728493205
1.5136862147850467
1.5313253464199639
1.5465790137179387
1.5584947418015844
1.5645373343809017
1.5602251319576719
1.5545146313358265
1.5476650991172762
1.5399030238813878
1.5312936292376784
1.5210597919841802
1.5096148005963066
1.4964646896563356
1.4815528972001202
1.4675460487075342
1.4507219171484438
1.4312160393894073
1.41341518758626
1.4019634170865252
1.3972533964418625
1.3873360778687114
1.3563907169819773
-1.6619688545285978
-0.7575547032673189
-0.20060515985713576
-0.00016107451535369912
0.14322796598454018
0.32920608679925606
0.5703394621090575
0.8467940000410418
1.141214659956369
1.3529384708289103
1.453125280613264
1.47260565538696
1.481333390158962
1.489850016721437
1.5004833349067657
1.5127636682854266
1.5250492141857772
1.5334447555897803
1.5376530824148316
1.5378898163675416
1.5351309123118226
1.530461630807912
1.523779564629188
1.5163591961267873
1.5077174794057808
1.4990881218144458
1.4904841551763335
1.482561816689128
1.4768372444724072
1.4729883638251005
1.470208882448493
1.4678584875539236
1.4664149867856169
1.4666091631009928
1.477088881443437
1.5139152748748392
1.5811218141474064
1.4282790124608031
-1.67329309101419
-0.5887617247606044
-0.011665791107636152
0.3105565736985504
0.519614024327781
0.7794062009382948
1.049281024248256
1.2799152685743107
1.374132796795333
1.4179731263963946
1.446524353254071
1.4628689483952946
1.4741555531979007
1.4836957659571346
1.491788490521157
1.4992032101956754
1.5052884101662318
1.5104357494731377
1.5127501419994338
1.5132863633407738
1.5116691921760996
1.5095017201592291
1.5064474178564329
1.5031598798297205
1.4998108499636498
1.496585197476888
1.4941961580725016
1.4931072149475464
1.4932804431116953
1.495961819179164
1.502765048715072
1.5138832213185216
1.5266508175150784
1.536989708224894
1.547675039118741
1.5828552035104462
1.5303946555350998
1.4719288903885912
-1.1332418672035718
-1.1320328769196055
-1.008537437665796
-0.20836638027416354
0.37446079594957415
0.788974903491847
1.0866141338074322
1.2346030946689792
1.3233848195681268
1.3768479282358788
1.4112562065356635
1.4361321936005693
1.4510047190561837
1.4598165396001057
1.464843131165811
1.4683025199882762
1.4695576928961867
1.4694805358589946
1.4679081334925728
1.4657060502201786
1.4632061905305502
1.4600347638336204
1.4573586205570401
1.4547593190371368
1.4533856962156095
1.4523902900911874
1.4525463713619235
1.4542258564859285
1.4579557021832794
1.4644792757359726
1.4739003670035111
1.4882607480637549
1.5120747639673802
1.552625497400002
1.612338521644023
1.6180551862762471
1.5900356282275177
1.530409745094984
1.4786481110822398
1.4922466477688163
)
;

boundaryField
{
    ".*"
    {
        type            zeroGradient;
    }
}


// ************************************************************************* //
