/*--------------------------------*- C++ -*----------------------------------*\
  =========                 |
  \\      /  F ield         | OpenFOAM: The Open Source CFD Toolbox
   \\    /   O peration     | Website:  https://openfoam.org
    \\  /    A nd           | Version:  6
     \\/     M anipulation  |
\*---------------------------------------------------------------------------*/
FoamFile
{
    version     2.0;
    format      ascii;
    class       volScalarField;
    location    "600";
    object      T;
}
// * * * * * * * * * * * * * * * * * * * * * * * * * * * * * * * * * * * * * //

dimensions      [0 0 0 1 0 0 0];

internalField   nonuniform List<scalar> 
775
(
300.729
300.717
300.719
300.72
300.722
300.723
300.724
300.725
300.726
300.726
300.727
300.727
300.727
300.727
300.727
300.516
300.516
300.518
300.516
300.514
300.514
300.515
300.517
300.519
300.523
300.525
300.523
300.522
300.597
300.598
300.606
300.615
300.666
300.731
300.715
300.717
300.72
300.722
300.724
300.726
300.727
300.729
300.73
300.73
300.73
300.729
300.728
300.726
300.724
300.723
300.723
300.526
300.534
300.54
300.543
300.539
300.532
300.527
300.525
300.526
300.529
300.531
300.529
300.52
300.592
300.599
300.61
300.624
300.683
300.735
300.715
300.717
300.72
300.724
300.727
300.729
300.732
300.733
300.735
300.735
300.735
300.734
300.733
300.73
300.728
300.725
300.724
300.671
300.65
300.629
300.608
300.587
300.57
300.556
300.546
300.54
300.54
300.543
300.547
300.547
300.598
300.604
300.616
300.635
300.7
300.738
300.715
300.717
300.721
300.725
300.729
300.733
300.736
300.738
300.74
300.741
300.741
300.739
300.737
300.734
300.731
300.728
300.724
300.718
300.707
300.692
300.672
300.651
300.629
300.608
300.589
300.574
300.563
300.557
300.556
300.564
300.578
300.601
300.609
300.624
300.647
300.716
300.742
300.715
300.716
300.721
300.726
300.731
300.736
300.739
300.742
300.745
300.746
300.745
300.744
300.741
300.737
300.734
300.73
300.726
300.721
300.714
300.705
300.693
300.677
300.659
300.64
300.621
300.604
300.59
300.58
300.574
300.574
300.582
300.6
300.611
300.63
300.656
300.73
300.746
300.715
300.716
300.721
300.727
300.732
300.737
300.742
300.745
300.748
300.75
300.749
300.747
300.743
300.74
300.736
300.732
300.728
300.723
300.718
300.711
300.703
300.692
300.678
300.663
300.646
300.63
300.616
300.605
300.597
300.594
300.595
300.596
300.595
300.594
300.598
300.612
300.636
300.668
300.743
300.749
300.715
300.715
300.72
300.726
300.732
300.738
300.743
300.747
300.75
300.753
300.752
300.75
300.745
300.741
300.736
300.732
300.729
300.724
300.72
300.715
300.708
300.7
300.69
300.678
300.665
300.651
300.638
300.627
300.619
300.614
300.611
300.609
300.607
300.606
300.608
300.618
300.649
300.695
300.763
300.752
300.715
300.714
300.719
300.725
300.731
300.736
300.741
300.746
300.751
300.755
300.755
300.751
300.746
300.741
300.736
300.732
300.729
300.725
300.72
300.716
300.71
300.704
300.697
300.687
300.677
300.666
300.654
300.644
300.636
300.629
300.625
300.62
300.617
300.614
300.614
300.625
300.667
300.711
300.767
300.753
300.715
300.713
300.717
300.722
300.727
300.732
300.737
300.743
300.751
300.756
300.756
300.752
300.746
300.74
300.735
300.732
300.728
300.724
300.72
300.715
300.71
300.704
300.698
300.691
300.683
300.674
300.665
300.656
300.647
300.641
300.635
300.629
300.625
300.621
300.619
300.627
300.657
300.699
300.763
300.843
300.725
300.713
300.715
300.719
300.723
300.727
300.731
300.741
300.752
300.758
300.757
300.751
300.744
300.738
300.734
300.73
300.727
300.723
300.718
300.713
300.708
300.702
300.697
300.691
300.684
300.677
300.669
300.661
300.654
300.647
300.641
300.635
300.63
300.625
300.623
300.628
300.654
300.694
300.775
300.907
300.746
300.718
300.713
300.716
300.719
300.722
300.728
300.743
300.756
300.76
300.757
300.75
300.742
300.736
300.732
300.728
300.725
300.721
300.716
300.71
300.704
300.698
300.693
300.688
300.682
300.676
300.669
300.663
300.656
300.65
300.644
300.638
300.632
300.628
300.625
300.63
300.655
300.695
300.787
300.953
300.772
300.736
300.721
300.718
300.72
300.724
300.737
300.754
300.763
300.763
300.756
300.746
300.738
300.732
300.729
300.727
300.724
300.719
300.713
300.706
300.699
300.692
300.687
300.682
300.677
300.672
300.666
300.66
300.655
300.649
300.643
300.638
300.633
300.628
300.626
300.633
300.659
300.7
300.798
300.988
300.812
300.777
300.756
300.746
300.743
300.747
300.764
300.774
300.773
300.764
300.751
300.739
300.731
300.727
300.726
300.725
300.722
300.717
300.71
300.702
300.694
300.686
300.68
300.675
300.67
300.666
300.661
300.656
300.651
300.646
300.641
300.637
300.632
300.628
300.626
300.636
300.664
300.707
300.808
301.034
300.906
300.87
300.839
300.816
300.804
300.803
300.802
300.793
300.776
300.756
300.739
300.728
300.723
300.723
300.725
300.725
300.722
300.715
300.707
300.698
300.689
300.681
300.675
300.669
300.665
300.661
300.657
300.653
300.649
300.644
300.64
300.636
300.632
300.629
300.629
300.642
300.672
300.715
300.817
301.105
301.039
300.972
300.923
300.887
300.861
300.841
300.815
300.782
300.751
300.727
300.715
300.712
300.716
300.722
300.726
300.726
300.722
300.714
300.706
300.697
300.689
300.681
300.675
300.669
300.664
300.66
300.656
300.653
300.649
300.646
300.643
300.639
300.636
300.635
300.638
300.654
300.684
300.726
300.826
299.833
300.359
300.552
300.617
300.636
300.644
300.648
300.656
300.669
300.685
300.702
300.717
300.727
300.731
300.729
300.724
300.717
300.709
300.702
300.695
300.689
300.683
300.677
300.672
300.668
300.665
300.662
300.659
300.656
300.654
300.651
300.65
300.65
300.656
300.672
300.701
300.742
300.838
299.953
300.238
300.374
300.463
300.518
300.558
300.597
300.635
300.67
300.697
300.718
300.732
300.738
300.739
300.735
300.731
300.725
300.72
300.715
300.71
300.705
300.7
300.696
300.693
300.69
300.687
300.685
300.683
300.681
300.679
300.678
300.677
300.679
300.685
300.698
300.723
300.762
300.851
300.968
300.811
300.455
300.376
300.42
300.491
300.55
300.599
300.643
300.682
300.711
300.731
300.742
300.748
300.75
300.749
300.747
300.744
300.741
300.738
300.735
300.732
300.729
300.727
300.726
300.724
300.723
300.723
300.722
300.722
300.721
300.72
300.718
300.718
300.719
300.723
300.731
300.747
300.777
300.862
300.881
300.563
300.476
300.462
300.518
300.576
300.626
300.67
300.705
300.732
300.749
300.758
300.763
300.765
300.765
300.765
300.764
300.763
300.762
300.761
300.761
300.76
300.76
300.761
300.762
300.763
300.764
300.765
300.767
300.768
300.769
300.77
300.771
300.771
300.772
300.776
300.782
300.788
300.803
300.878
301.019
300.602
300.586
300.602
300.643
300.684
300.719
300.749
300.769
300.78
300.787
300.791
300.793
300.794
300.794
300.795
300.795
300.796
300.796
300.797
300.799
300.8
300.802
300.804
300.807
300.81
300.812
300.815
300.818
300.821
300.824
300.828
300.832
300.837
300.842
300.848
300.855
300.863
300.872
300.905
)
;

boundaryField
{
    floor
    {
        type            wallHeatTransfer;
        Tinf            uniform 301;
        alphaWall       uniform 0.36;
        value           nonuniform List<scalar> 
42
(
300.784
300.707
300.697
300.693
300.692
300.691
300.688
300.686
300.685
300.684
300.684
300.684
300.687
300.7
300.716
300.696
300.686
300.686
300.735
300.7
300.716
300.694
300.711
300.682
300.699
300.685
300.693
300.681
300.689
300.692
300.687
300.691
300.784
300.779
300.781
300.785
300.707
300.785
300.695
300.776
300.747
300.772
)
;
    }
    ceiling
    {
        type            wallHeatTransfer;
        Tinf            uniform 301;
        alphaWall       uniform 0.36;
        value           nonuniform List<scalar> 
43
(
301.017
300.647
300.638
300.653
300.691
300.729
300.761
300.788
300.808
300.819
300.826
300.831
300.833
300.834
300.834
300.834
300.834
300.833
300.833
300.833
300.833
300.834
300.835
300.836
300.837
300.838
300.84
300.841
300.843
300.844
300.846
300.848
300.851
300.854
300.858
300.863
300.868
300.875
300.882
300.913
301.096
301.037
300.048
)
;
    }
    sWall
    {
        type            wallHeatTransfer;
        Tinf            uniform 313.2;
        alphaWall       uniform 0.54;
        value           nonuniform List<scalar> 9(302.85 302.656 302.497 302.385 302.402 302.503 302.348 302.26 302.841);
    }
    nWall
    {
        type            wallHeatTransfer;
        Tinf            uniform 305.6;
        alphaWall       uniform 0.54;
        value           nonuniform List<scalar> 
18
(
302.057
301.835
301.707
301.62
301.561
301.526
301.53
301.471
301.452
301.436
301.425
301.414
301.406
301.407
301.412
301.41
301.43
301.487
)
;
    }
    sideWalls
    {
        type            empty;
    }
    glass1
    {
        type            wallHeatTransfer;
        Tinf            uniform 301.5;
        alphaWall       uniform 4.3;
        value           nonuniform List<scalar> 9(301.363 301.336 301.316 301.3 301.288 301.277 301.268 301.257 301.24);
    }
    glass2
    {
        type            wallHeatTransfer;
        Tinf            uniform 301.5;
        alphaWall       uniform 4.3;
        value           nonuniform List<scalar> 2(301.208 301.197);
    }
    sun
    {
        type            wallHeatTransfer;
        Tinf            uniform 301;
        alphaWall       uniform 0.36;
        value           nonuniform List<scalar> 
14
(
300.804
300.79
300.79
300.789
300.788
300.787
300.787
300.786
300.785
300.785
300.784
300.784
300.784
300.784
)
;
    }
    inlet
    {
        type            fixedValue;
        value           uniform 298.15;
    }
    outlet
    {
        type            zeroGradient;
    }
}


// ************************************************************************* //
