/*--------------------------------*- C++ -*----------------------------------*\
  =========                 |
  \\      /  F ield         | OpenFOAM: The Open Source CFD Toolbox
   \\    /   O peration     | Website:  https://openfoam.org
    \\  /    A nd           | Version:  6
     \\/     M anipulation  |
\*---------------------------------------------------------------------------*/
FoamFile
{
    version     2.0;
    format      ascii;
    class       volScalarField;
    location    "600";
    object      T;
}
// * * * * * * * * * * * * * * * * * * * * * * * * * * * * * * * * * * * * * //

dimensions      [0 0 0 1 0 0 0];

internalField   nonuniform List<scalar> 
778
(
309.718
309.526
309.692
309.475
309.526
309.558
309.451
309.44
309.408
309.487
309.437
309.394
309.325
309.294
309.427
309.428
309.37
309.275
309.205
309.199
309.367
309.422
309.359
309.247
309.155
309.113
309.126
309.303
309.416
309.355
309.237
309.128
309.071
309.057
309.073
309.23
309.41
309.353
309.238
309.119
309.047
309.028
309.029
309.035
309.145
309.404
309.354
309.248
309.126
309.036
309.006
309.013
309.018
309.013
309.046
309.397
309.356
309.263
309.148
309.045
308.989
308.993
309.013
309.016
309.003
309.035
309.39
309.359
309.281
309.179
309.074
308.993
308.968
309
309.022
309.017
308.997
309.024
309.382
309.361
309.301
309.215
309.118
309.029
308.971
308.989
309.024
309.032
309.014
308.99
309.014
309.37
309.363
309.32
309.252
309.169
309.086
309.029
309.01
309.032
309.042
309.032
309.003
308.984
309.004
309.342
309.361
309.336
309.287
309.221
309.151
309.094
309.058
309.049
309.053
309.043
309.016
308.984
308.979
308.995
309.339
309.345
309.315
309.268
309.216
309.158
309.113
309.083
309.067
309.051
309.022
308.988
308.961
308.983
309.079
309.308
309.317
309.296
309.256
309.21
309.161
309.12
309.087
309.057
309.025
308.987
308.953
308.984
308.719
308.936
309.165
309.248
309.251
309.223
309.185
309.141
309.099
309.06
309.021
308.979
308.939
308.912
309.1
308.594
308.262
308.536
308.99
309.133
309.167
309.157
309.128
309.089
309.048
309.006
308.963
308.92
308.883
308.882
309.029
307.99
307.771
308.338
308.795
308.979
309.043
309.053
309.036
309.007
308.971
308.934
308.894
308.857
308.842
308.95
309.036
307.565
307.763
308.187
308.593
308.797
308.886
308.917
308.918
308.903
308.881
308.854
308.826
308.815
308.92
309.038
309.05
309.067
307.455
307.65
307.782
308.066
308.4
308.604
308.712
308.764
308.787
308.794
308.792
308.783
308.784
308.879
309.03
309.079
309.1
309.077
309.131
307.38
307.625
307.718
307.798
307.974
308.23
308.419
308.538
308.612
308.662
308.697
308.721
308.743
308.831
309.008
309.087
309.135
309.131
309.141
307.133
307.452
307.619
307.714
307.765
307.815
307.916
308.095
308.258
308.383
308.481
308.562
308.63
308.688
308.782
308.964
309.086
309.138
309.178
306.848
307.19
307.467
307.636
307.722
307.77
307.801
307.831
307.888
308.002
308.136
308.265
308.389
308.507
308.611
308.727
308.908
309.071
309.141
306.68
306.833
307.175
307.496
307.657
307.738
307.784
307.811
307.829
307.847
307.88
307.951
308.06
308.197
308.354
308.509
308.653
308.85
309.042
309.141
306.631
306.801
307.135
307.562
307.688
307.758
307.801
307.827
307.842
307.852
307.863
307.885
307.935
308.033
308.191
308.376
308.57
308.786
309.002
309.138
306.556
306.788
307.09
307.632
307.721
307.782
307.821
307.845
307.859
307.867
307.873
307.881
307.9
307.949
308.061
308.251
308.48
308.722
308.956
309.128
306.538
306.769
307
307.667
307.759
307.81
307.843
307.864
307.877
307.884
307.888
307.894
307.904
307.931
307.999
308.164
308.402
308.662
308.908
309.111
306.542
306.73
306.955
307.692
307.798
307.841
307.868
307.884
307.895
307.902
307.906
307.911
307.92
307.94
307.989
308.122
308.351
308.614
308.864
309.089
306.57
306.739
306.924
307.71
307.834
307.875
307.895
307.907
307.915
307.92
307.924
307.93
307.94
307.96
308.003
308.114
308.326
308.582
308.828
309.065
306.577
306.773
306.891
307.721
307.87
307.908
307.923
307.931
307.936
307.939
307.943
307.949
307.96
307.983
308.026
308.124
308.319
308.563
308.8
309.041
306.586
306.801
306.874
307.726
307.903
307.94
307.951
307.955
307.958
307.96
307.962
307.968
307.981
308.007
308.053
308.144
308.323
308.554
308.779
309.019
306.623
306.816
306.956
307.726
307.936
307.971
307.979
307.98
307.98
307.981
307.983
307.988
308.002
308.03
308.08
308.169
308.332
308.55
308.763
308.998
306.67
306.842
307.036
307.72
307.967
308.001
308.006
308.005
308.003
308.003
308.004
308.009
308.023
308.053
308.105
308.194
308.345
308.549
308.75
308.978
306.684
306.853
307.103
307.71
307.997
308.029
308.033
308.03
308.027
308.026
308.026
308.031
308.045
308.075
308.129
308.217
308.359
308.549
308.739
308.958
306.679
306.859
307.16
307.694
308.026
308.056
308.058
308.055
308.051
308.049
308.05
308.054
308.068
308.098
308.152
308.239
308.373
308.549
308.728
308.939
306.666
306.849
307.214
307.843
308.061
308.083
308.083
308.08
308.076
308.074
308.074
308.079
308.092
308.121
308.174
308.259
308.385
308.549
308.717
308.92
306.656
306.865
307.272
308.004
308.113
308.111
308.109
308.105
308.102
308.101
308.101
308.105
308.117
308.144
308.195
308.277
308.396
308.549
308.706
308.901
306.644
306.859
307.39
308.092
308.151
308.139
308.134
308.131
308.129
308.128
308.128
308.132
308.143
308.168
308.216
308.294
308.407
308.548
308.696
308.882
306.641
306.887
307.505
308.178
308.166
308.16
308.157
308.156
308.155
308.156
308.159
308.169
308.193
308.237
308.31
308.416
308.548
308.686
308.863
306.674
307.052
308.196
308.192
308.187
308.184
308.183
308.183
308.184
308.188
308.197
308.218
308.259
308.326
308.424
308.547
308.676
308.844
306.787
308.211
308.215
308.214
308.213
308.212
308.212
308.213
308.217
308.226
308.244
308.281
308.342
308.433
308.547
308.667
308.826
308.227
308.239
308.241
308.241
308.241
308.241
308.243
308.247
308.254
308.271
308.303
308.358
308.441
308.546
308.658
308.808
308.266
308.27
308.27
308.27
308.27
308.272
308.276
308.283
308.298
308.326
308.375
308.45
308.546
308.65
308.79
308.303
308.3
308.299
308.299
308.3
308.305
308.312
308.325
308.349
308.392
308.459
308.546
308.642
308.773
308.335
308.33
308.327
308.328
308.332
308.339
308.352
308.373
308.41
308.469
308.547
308.635
308.756
308.364
308.356
308.354
308.357
308.364
308.376
308.395
308.427
308.479
308.548
308.628
308.739
308.39
308.381
308.38
308.386
308.398
308.416
308.444
308.489
308.55
308.622
308.723
308.413
308.404
308.406
308.416
308.433
308.46
308.499
308.552
308.616
308.708
308.434
308.426
308.431
308.447
308.472
308.507
308.555
308.611
308.693
308.453
308.447
308.457
308.48
308.514
308.556
308.606
308.679
308.471
308.468
308.485
308.516
308.556
308.601
308.665
308.488
308.489
308.514
308.553
308.595
308.651
308.504
308.512
308.546
308.587
308.637
308.52
308.536
308.576
308.622
308.534
308.562
308.602
308.549
308.573
308.528
)
;

boundaryField
{
    floor
    {
        type            wallHeatTransfer;
        Tinf            uniform 305.2;
        alphaWall       uniform 0.36;
        value           nonuniform List<scalar> 
36
(
308.669
306.281
306.244
306.079
305.979
305.914
305.907
305.87
305.853
305.88
305.944
305.997
306.015
306.02
306.037
306.074
306.152
306.26
306.35
306.35
306.655
307.085
307.576
307.668
307.651
307.624
308.669
308.381
308.079
307.947
306.281
307.947
306.488
307.483
306.752
306.997
)
;
    }
    ceiling
    {
        type            wallHeatTransfer;
        Tinf            uniform 301.2;
        alphaWall       uniform 0.36;
        value           nonuniform List<scalar> 
43
(
308.591
308.606
308.592
308.569
308.56
308.562
308.567
308.567
308.56
308.543
308.517
308.487
308.457
308.429
308.405
308.384
308.367
308.353
308.339
308.327
308.313
308.3
308.285
308.27
308.255
308.24
308.224
308.208
308.193
308.178
308.163
308.149
308.135
308.122
308.108
308.093
308.074
308.049
308.009
307.908
308.588
308.627
308.707
)
;
    }
    sWall
    {
        type            wallHeatTransfer;
        Tinf            uniform 315.2;
        alphaWall       uniform 0.54;
        value           nonuniform List<scalar> 9(309.704 309.666 309.626 309.581 309.53 309.47 309.648 309.73 309.822);
    }
    nWall
    {
        type            wallHeatTransfer;
        Tinf            uniform 308.2;
        alphaWall       uniform 0.54;
        value           nonuniform List<scalar> 
14
(
308.22
308.249
308.278
308.351
308.371
308.391
308.409
308.427
308.445
308.462
308.48
308.498
308.516
308.488
)
;
    }
    sideWalls
    {
        type            empty;
    }
    glass1
    {
        type            wallHeatTransfer;
        Tinf            uniform 315.2;
        alphaWall       uniform 4.3;
        value           nonuniform List<scalar> 9(313.189 312.848 312.561 312.458 312.39 312.336 312.287 312.231 312.157);
    }
    glass2
    {
        type            wallHeatTransfer;
        Tinf            uniform 308.2;
        alphaWall       uniform 4.3;
        value           nonuniform List<scalar> 2(308.24 308.251);
    }
    sun
    {
        type            wallHeatTransfer;
        Tinf            uniform 305.2;
        alphaWall       uniform 0.36;
        value           nonuniform List<scalar> 
14
(
309.153
309.087
309.04
309.007
308.98
308.958
308.939
308.92
308.901
308.88
308.857
308.83
308.795
308.747
)
;
    }
    Table_master
    {
        type            zeroGradient;
    }
    Table_slave
    {
        type            zeroGradient;
    }
    inlet
    {
        type            fixedValue;
        value           uniform 298.15;
    }
    outlet
    {
        type            zeroGradient;
    }
}


// ************************************************************************* //
