/*--------------------------------*- C++ -*----------------------------------*\
  =========                 |
  \\      /  F ield         | OpenFOAM: The Open Source CFD Toolbox
   \\    /   O peration     | Website:  https://openfoam.org
    \\  /    A nd           | Version:  6
     \\/     M anipulation  |
\*---------------------------------------------------------------------------*/
FoamFile
{
    version     2.0;
    format      ascii;
    class       volScalarField;
    location    "600";
    object      T;
}
// * * * * * * * * * * * * * * * * * * * * * * * * * * * * * * * * * * * * * //

dimensions      [0 0 0 1 0 0 0];

internalField   nonuniform List<scalar> 
778
(
301.155
300.722
301.42
300.708
300.712
301.663
300.712
300.659
300.77
301.886
300.715
300.664
300.659
300.845
302.091
300.719
300.671
300.657
300.672
300.93
302.278
300.722
300.676
300.664
300.658
300.694
301.015
302.428
300.724
300.68
300.671
300.667
300.663
300.723
301.098
302.574
300.726
300.685
300.678
300.676
300.672
300.668
300.761
301.244
302.807
300.727
300.689
300.684
300.685
300.683
300.677
300.673
300.855
301.79
302.783
300.729
300.694
300.69
300.693
300.694
300.69
300.68
300.69
301.29
302.124
302.774
300.731
300.699
300.696
300.701
300.705
300.704
300.695
300.681
300.8
301.642
302.251
302.79
300.735
300.703
300.701
300.708
300.715
300.717
300.711
300.696
300.69
301.147
301.831
302.321
302.831
300.739
300.708
300.705
300.714
300.724
300.729
300.726
300.714
300.694
300.79
301.401
301.958
302.398
302.795
300.751
300.713
300.708
300.719
300.731
300.74
300.742
300.732
300.711
300.699
301.03
301.599
302.077
302.419
302.913
300.721
300.709
300.722
300.737
300.749
300.755
300.75
300.731
300.704
300.799
301.267
301.778
302.162
302.682
300.732
300.709
300.722
300.741
300.757
300.767
300.768
300.752
300.722
300.709
301.002
301.492
301.935
302.338
300.74
300.708
300.721
300.742
300.762
300.777
300.783
300.773
300.743
300.711
300.826
301.236
301.699
302.061
295.089
300.773
300.708
300.717
300.741
300.764
300.784
300.797
300.793
300.766
300.725
300.742
301.029
301.466
301.838
297.652
295.204
300.712
300.71
300.737
300.762
300.787
300.807
300.811
300.79
300.745
300.718
300.884
301.258
301.63
299.723
297.02
296.359
300.699
300.73
300.758
300.785
300.812
300.827
300.815
300.77
300.722
300.798
301.09
301.44
300.678
298.756
297.269
297.84
298.818
300.688
300.72
300.751
300.779
300.81
300.837
300.84
300.804
300.739
300.758
300.97
301.278
301.035
299.934
298.764
298.379
299.223
299.302
299.76
300.661
300.708
300.743
300.77
300.801
300.837
300.86
300.844
300.78
300.75
300.897
301.152
301.131
300.556
299.821
299.207
299.762
299.524
299.921
300.673
300.635
300.691
300.734
300.761
300.788
300.825
300.865
300.878
300.841
300.784
300.866
301.067
301.129
300.839
300.361
299.901
299.941
300.334
300.641
300.621
300.607
300.671
300.722
300.753
300.775
300.806
300.852
300.891
300.891
300.852
300.87
301.021
301.101
300.954
300.646
300.352
300.203
300.57
300.62
300.594
300.57
300.645
300.706
300.746
300.766
300.787
300.827
300.879
300.913
300.907
300.908
301.008
301.076
300.993
300.785
300.581
300.416
300.456
300.602
300.555
300.535
300.613
300.683
300.733
300.761
300.774
300.799
300.848
300.903
300.931
300.942
301.002
301.06
301.001
300.848
300.687
300.583
300.354
300.55
300.501
300.528
300.583
300.654
300.714
300.752
300.77
300.781
300.812
300.868
300.921
300.953
300.995
301.041
300.995
300.871
300.736
300.645
300.249
300.465
300.435
300.516
300.568
300.625
300.686
300.736
300.765
300.776
300.786
300.824
300.884
300.934
300.976
301.011
300.979
300.872
300.757
300.676
300.177
300.372
300.388
300.501
300.552
300.603
300.657
300.71
300.751
300.773
300.78
300.791
300.835
300.892
300.94
300.972
300.951
300.862
300.762
300.695
300.138
300.285
300.345
300.484
300.533
300.581
300.632
300.683
300.728
300.762
300.779
300.783
300.795
300.839
300.89
300.925
300.916
300.847
300.76
300.708
300.114
300.213
300.306
300.463
300.513
300.56
300.608
300.656
300.702
300.741
300.771
300.785
300.786
300.796
300.836
300.873
300.876
300.827
300.757
300.719
300.091
300.154
300.267
300.412
300.488
300.537
300.584
300.631
300.675
300.717
300.753
300.78
300.79
300.788
300.793
300.821
300.835
300.807
300.754
300.728
300.07
300.115
300.224
300.17
300.449
300.513
300.561
300.605
300.648
300.689
300.729
300.765
300.789
300.796
300.79
300.784
300.796
300.786
300.751
300.736
300.054
300.09
300.174
300.088
300.361
300.484
300.537
300.581
300.622
300.661
300.702
300.743
300.779
300.8
300.802
300.792
300.772
300.768
300.748
300.743
300.044
300.076
300.078
300.081
300.284
300.442
300.513
300.558
300.596
300.634
300.672
300.714
300.758
300.795
300.813
300.81
300.797
300.761
300.747
300.75
300.039
300.052
300.034
300.088
300.221
300.4
300.486
300.535
300.572
300.606
300.642
300.683
300.729
300.775
300.812
300.827
300.821
300.806
300.756
300.757
300.036
300.01
300.065
300.118
300.181
300.364
300.462
300.513
300.549
300.58
300.613
300.651
300.696
300.746
300.793
300.831
300.845
300.835
300.819
300.769
300.017
300.011
300.097
300.181
300.195
300.346
300.442
300.494
300.527
300.555
300.585
300.619
300.662
300.71
300.76
300.808
300.849
300.865
300.862
300.851
300.016
300.015
300.125
300.271
300.232
300.34
300.427
300.476
300.507
300.532
300.557
300.588
300.627
300.673
300.722
300.772
300.821
300.865
300.888
300.93
300.016
300.001
300.154
300.272
300.343
300.416
300.46
300.487
300.509
300.531
300.557
300.592
300.636
300.684
300.733
300.782
300.832
300.881
300.934
300.016
300.053
300.312
300.348
300.408
300.445
300.469
300.487
300.505
300.528
300.559
300.6
300.647
300.697
300.747
300.795
300.847
300.919
300.047
300.33
300.351
300.403
300.434
300.453
300.466
300.48
300.499
300.526
300.565
300.614
300.667
300.721
300.77
300.819
300.904
300.419
300.352
300.398
300.429
300.441
300.449
300.458
300.472
300.496
300.533
300.585
300.644
300.705
300.759
300.808
300.896
300.447
300.399
300.431
300.444
300.442
300.442
300.448
300.467
300.502
300.559
300.628
300.698
300.759
300.811
300.897
300.472
300.459
300.472
300.467
300.448
300.438
300.443
300.473
300.534
300.617
300.698
300.765
300.822
300.907
300.722
300.544
300.646
300.513
300.475
300.447
300.453
300.509
300.606
300.701
300.777
300.838
300.921
300.926
300.747
300.665
300.571
300.557
300.502
300.499
300.589
300.702
300.79
300.856
300.94
300.932
300.78
300.677
300.659
300.628
300.532
300.569
300.693
300.802
300.876
300.961
300.944
300.776
300.729
300.747
300.639
300.572
300.669
300.807
300.895
300.983
300.944
300.807
300.832
300.767
300.63
300.651
300.799
300.91
301.001
300.965
300.902
300.869
300.735
300.66
300.775
300.916
301.013
301.01
300.951
300.835
300.717
300.757
300.91
301.016
301.042
300.905
300.8
300.763
300.892
301.012
300.976
300.853
300.803
300.874
301.003
300.94
300.839
300.866
300.993
300.939
300.873
300.984
300.962
300.981
301.014
)
;

boundaryField
{
    floor
    {
        type            wallHeatTransfer;
        Tinf            uniform 305.2;
        alphaWall       uniform 0.36;
        value           nonuniform List<scalar> 
36
(
301.565
301.802
301.741
301.721
301.721
301.73
301.736
301.727
301.728
301.745
301.782
301.83
301.867
301.838
301.489
301.35
301.307
301.316
301.425
301.425
301.214
301.104
301.044
301.075
301.047
301.145
301.565
301.471
301.481
301.512
301.802
301.512
301.523
301.343
301.316
301.246
)
;
    }
    ceiling
    {
        type            wallHeatTransfer;
        Tinf            uniform 303.2;
        alphaWall       uniform 0.36;
        value           nonuniform List<scalar> 
43
(
300.612
300.305
300.204
300.207
300.356
300.572
300.75
300.895
300.947
300.972
300.988
300.998
301.005
301.01
301.014
301.018
301.022
301.028
301.045
301.131
301.196
301.199
301.18
301.156
301.142
301.143
301.154
301.168
301.185
301.203
301.219
301.23
301.234
301.229
301.217
301.2
301.182
301.165
301.154
301.193
302.935
302.719
295.774
)
;
    }
    sWall
    {
        type            wallHeatTransfer;
        Tinf            uniform 315.2;
        alphaWall       uniform 0.54;
        value           nonuniform List<scalar> 9(303.842 303.904 304.01 304.131 304.103 304.308 301.607 302.091 302.404);
    }
    nWall
    {
        type            wallHeatTransfer;
        Tinf            uniform 308.2;
        alphaWall       uniform 0.54;
        value           nonuniform List<scalar> 
14
(
302.068
301.919
301.723
301.778
301.796
301.778
301.81
301.898
301.964
301.86
301.796
301.768
301.771
301.865
)
;
    }
    sideWalls
    {
        type            empty;
    }
    glass1
    {
        type            wallHeatTransfer;
        Tinf            uniform 315.2;
        alphaWall       uniform 4.3;
        value           nonuniform List<scalar> 9(311.629 310.366 309.496 308.925 308.536 308.267 308.05 307.929 308.034);
    }
    glass2
    {
        type            wallHeatTransfer;
        Tinf            uniform 308.2;
        alphaWall       uniform 4.3;
        value           nonuniform List<scalar> 2(304.764 304.677);
    }
    sun
    {
        type            wallHeatTransfer;
        Tinf            uniform 305.2;
        alphaWall       uniform 0.36;
        value           nonuniform List<scalar> 
14
(
301.936
301.571
301.769
301.761
301.739
301.718
301.698
301.679
301.659
301.638
301.62
301.604
301.59
301.576
)
;
    }
    Table_master
    {
        type            zeroGradient;
    }
    Table_slave
    {
        type            zeroGradient;
    }
    inlet
    {
        type            fixedValue;
        value           uniform 293.15;
    }
    outlet
    {
        type            zeroGradient;
    }
}


// ************************************************************************* //
