/*--------------------------------*- C++ -*----------------------------------*\
  =========                 |
  \\      /  F ield         | OpenFOAM: The Open Source CFD Toolbox
   \\    /   O peration     | Website:  https://openfoam.org
    \\  /    A nd           | Version:  6
     \\/     M anipulation  |
\*---------------------------------------------------------------------------*/
FoamFile
{
    version     2.0;
    format      ascii;
    class       volVectorField;
    location    "600";
    object      U;
}
// * * * * * * * * * * * * * * * * * * * * * * * * * * * * * * * * * * * * * //

dimensions      [0 1 -1 0 0 0 0];

internalField   nonuniform List<vector> 
775
(
(0.00695628 0.0266117 0)
(-0.0511984 0.0113479 0)
(-0.0646438 0.00945811 0)
(-0.080102 0.00794973 0)
(-0.0934168 0.00603342 0)
(-0.104095 0.00388592 0)
(-0.111724 0.00154779 0)
(-0.11596 -0.000994341 0)
(-0.116472 -0.00377704 0)
(-0.112934 -0.00690502 0)
(-0.104923 -0.0104542 0)
(-0.0916822 -0.0145342 0)
(-0.073025 -0.0198146 0)
(-0.0538015 -0.0278382 0)
(-0.051664 -0.0386605 0)
(0.0067724 0.00725499 0)
(-0.0215292 -0.00447758 0)
(-0.0161737 -0.00449168 0)
(-0.0150713 -0.00209121 0)
(-0.0148015 -0.00128984 0)
(-0.0148291 -0.00195666 0)
(-0.0136101 -0.00323708 0)
(-0.0105856 -0.00505039 0)
(-0.00574325 -0.00733595 0)
(0.00229458 -0.0103587 0)
(0.0103982 -0.0119807 0)
(0.0212107 -0.00838919 0)
(-0.000165 0.00564574 0)
(0.00666395 -0.0015704 0)
(-0.00304807 -0.0204482 0)
(0.0193716 -0.0221157 0)
(0.0488293 -0.0126105 0)
(-0.0402205 0.0200966 0)
(0.0498557 0.0540363 0)
(-0.0512066 0.0278369 0)
(-0.0596227 0.0247363 0)
(-0.0758415 0.0221494 0)
(-0.0893198 0.0186264 0)
(-0.100112 0.0144914 0)
(-0.107938 0.00985399 0)
(-0.112558 0.00473157 0)
(-0.11371 -0.000878977 0)
(-0.111181 -0.00691455 0)
(-0.104994 -0.0130212 0)
(-0.0952312 -0.0188552 0)
(-0.0829804 -0.0245205 0)
(-0.0719158 -0.0303826 0)
(-0.066226 -0.0326426 0)
(-0.0541756 -0.0158547 0)
(-0.0320947 -0.00879184 0)
(-0.0356013 -0.0074255 0)
(0.0608621 0.0164529 0)
(0.0210464 0.00941453 0)
(0.00980839 0.0034606 0)
(0.00725789 0.00293541 0)
(0.00334394 0.00327587 0)
(-0.00192134 0.00171195 0)
(-0.00601802 -0.000947175 0)
(-0.008466 -0.00402509 0)
(-0.00964315 -0.00742777 0)
(-0.00964774 -0.0109512 0)
(-0.00763054 -0.0132605 0)
(0.00126524 -0.00670842 0)
(-0.0516897 0.0280663 0)
(0.0432058 0.0156069 0)
(0.0113547 -0.0232329 0)
(0.0208614 -0.0262215 0)
(0.053619 -0.00865259 0)
(-0.114309 0.0510383 0)
(0.0881597 0.0833822 0)
(-0.0548413 0.046158 0)
(-0.053174 0.0413845 0)
(-0.0695007 0.0363067 0)
(-0.0825556 0.0300352 0)
(-0.0930061 0.0229266 0)
(-0.100639 0.0150968 0)
(-0.105237 0.00657926 0)
(-0.1065 -0.0025464 0)
(-0.104129 -0.0120847 0)
(-0.0981911 -0.0215546 0)
(-0.0890013 -0.0302366 0)
(-0.0777276 -0.0375771 0)
(-0.0663664 -0.0428824 0)
(-0.0554833 -0.0435338 0)
(-0.0418525 -0.035992 0)
(-0.0264119 -0.0323129 0)
(-0.025286 -0.0328801 0)
(0.0506152 -0.0141751 0)
(0.0262225 -0.00436624 0)
(0.0229102 0.00256791 0)
(0.0220864 0.00655894 0)
(0.0186164 0.00816507 0)
(0.0134617 0.0077278 0)
(0.00769759 0.00590909 0)
(0.000244979 0.00272241 0)
(-0.0099894 -0.00127835 0)
(-0.0213323 -0.00497683 0)
(-0.0309933 -0.00697056 0)
(-0.0436089 -0.0052003 0)
(-0.0867133 0.000344357 0)
(0.0716083 -0.00852835 0)
(0.0166511 -0.0301398 0)
(0.020842 -0.0290634 0)
(0.0653995 -0.00503822 0)
(-0.174315 0.0757399 0)
(0.12264 0.109645 0)
(-0.0611093 0.0639895 0)
(-0.0462441 0.0578437 0)
(-0.0625895 0.0502236 0)
(-0.0747805 0.0415313 0)
(-0.0846629 0.0318966 0)
(-0.0920089 0.0213191 0)
(-0.0965445 0.00974266 0)
(-0.0978388 -0.0027796 0)
(-0.0954292 -0.0159363 0)
(-0.0894104 -0.0288885 0)
(-0.0801778 -0.0404191 0)
(-0.0688292 -0.049309 0)
(-0.0567223 -0.0543912 0)
(-0.0443528 -0.0542902 0)
(-0.0310818 -0.0492548 0)
(-0.0180967 -0.0442266 0)
(-0.0099708 -0.0386368 0)
(0.0045961 -0.0118581 0)
(0.0192593 -0.0172623 0)
(0.0218944 -0.00615575 0)
(0.0253512 0.00309342 0)
(0.0279485 0.00840034 0)
(0.027859 0.0112088 0)
(0.0254906 0.0120478 0)
(0.0216798 0.0115068 0)
(0.0168782 0.0101604 0)
(0.0112894 0.00850973 0)
(0.00579713 0.00645495 0)
(0.00360521 0.00179454 0)
(-0.00162001 -0.0119764 0)
(-0.0742424 -0.0328219 0)
(0.068791 -0.0358975 0)
(0.00721626 -0.0397965 0)
(0.0165177 -0.0300722 0)
(0.0771498 0.00160438 0)
(-0.221674 0.0943354 0)
(0.154634 0.132179 0)
(-0.068977 0.0804363 0)
(-0.0389169 0.0730765 0)
(-0.0555371 0.0629112 0)
(-0.0663746 0.0520874 0)
(-0.0753084 0.040218 0)
(-0.0820816 0.0271131 0)
(-0.0863449 0.0125941 0)
(-0.0874883 -0.00331345 0)
(-0.0848389 -0.0201391 0)
(-0.0785457 -0.0366291 0)
(-0.0690713 -0.0510049 0)
(-0.0575494 -0.0615191 0)
(-0.0451643 -0.0670355 0)
(-0.0326347 -0.0670424 0)
(-0.0201745 -0.0624349 0)
(-0.0086509 -0.055618 0)
(0.000544842 -0.046808 0)
(0.0110177 -0.0324746 0)
(0.0197964 -0.0234937 0)
(0.0254232 -0.0120485 0)
(0.0299951 -0.00173847 0)
(0.0333798 0.00599145 0)
(0.0350201 0.01108 0)
(0.0347799 0.0138263 0)
(0.0330373 0.0146252 0)
(0.0302866 0.0139484 0)
(0.0270483 0.0122822 0)
(0.0241005 0.0100391 0)
(0.0229589 0.00704385 0)
(0.0234639 -0.00075726 0)
(-0.0340164 -0.0195094 0)
(0.0595743 -0.0459356 0)
(0.0110351 -0.0466223 0)
(0.0172959 -0.0321361 0)
(0.0899745 0.00714934 0)
(-0.256031 0.108938 0)
(0.184696 0.151719 0)
(-0.0780507 0.0954834 0)
(-0.0313592 0.0865799 0)
(-0.0484946 0.073837 0)
(-0.0573421 0.0612163 0)
(-0.0647599 0.0475145 0)
(-0.0704907 0.0322599 0)
(-0.0741273 0.0150708 0)
(-0.0748241 -0.00413261 0)
(-0.0716582 -0.0246714 0)
(-0.0648749 -0.0446798 0)
(-0.0550919 -0.0617372 0)
(-0.0436277 -0.0736376 0)
(-0.031601 -0.0795074 0)
(-0.0198487 -0.07937 0)
(-0.00867465 -0.0742278 0)
(0.00143485 -0.0656335 0)
(0.00971569 -0.0546544 0)
(0.0175517 -0.041217 0)
(0.0244909 -0.0291019 0)
(0.0299464 -0.0169794 0)
(0.034521 -0.0059087 0)
(0.0381168 0.00315699 0)
(0.040528 0.00976123 0)
(0.0415482 0.0139667 0)
(0.0413122 0.0159438 0)
(0.0401371 0.0159804 0)
(0.0384642 0.0144321 0)
(0.0368686 0.0116065 0)
(0.0361355 0.00750624 0)
(0.0368101 0.00152616 0)
(0.0319351 -0.00589832 0)
(0.0359455 0.0356743 0)
(0.041693 0.0645297 0)
(0.0457138 0.0706162 0)
(0.0420776 -0.00971932 0)
(0.0264453 -0.0404319 0)
(0.023726 -0.0322805 0)
(0.100183 0.0127525 0)
(-0.282633 0.121787 0)
(0.211982 0.169464 0)
(-0.0884293 0.109431 0)
(-0.0242503 0.0978268 0)
(-0.0417179 0.082395 0)
(-0.0477423 0.0683098 0)
(-0.0529298 0.0532298 0)
(-0.0570278 0.036297 0)
(-0.0596105 0.0168138 0)
(-0.0594729 -0.00554358 0)
(-0.0554194 -0.0297712 0)
(-0.0479396 -0.0531152 0)
(-0.0379453 -0.072483 0)
(-0.027008 -0.0852842 0)
(-0.0160077 -0.0911131 0)
(-0.00578275 -0.0903665 0)
(0.0037415 -0.0840577 0)
(0.0118451 -0.0741945 0)
(0.0187369 -0.0619922 0)
(0.0248786 -0.0482282 0)
(0.0303032 -0.0347107 0)
(0.03486 -0.0217229 0)
(0.0387912 -0.00990657 0)
(0.0420905 8.56861e-05 0)
(0.044569 0.00780389 0)
(0.0461104 0.0131125 0)
(0.0467119 0.0160631 0)
(0.0465013 0.0168169 0)
(0.0456901 0.0156147 0)
(0.0445143 0.0126964 0)
(0.0431208 0.00819874 0)
(0.0412468 0.00208038 0)
(0.0365712 -0.00579251 0)
(0.0322419 -0.0103747 0)
(0.0311442 -0.0162413 0)
(0.0348104 -0.0231916 0)
(0.0367986 -0.0350934 0)
(0.0254173 -0.0382967 0)
(0.0176209 -0.022459 0)
(0.0679524 0.0346441 0)
(-0.336553 0.127389 0)
(0.229241 0.189255 0)
(-0.101475 0.120805 0)
(-0.0192601 0.105386 0)
(-0.0355745 0.0876511 0)
(-0.0377527 0.0726056 0)
(-0.0399691 0.0566943 0)
(-0.0418332 0.0386779 0)
(-0.042975 0.0174554 0)
(-0.0414723 -0.00780157 0)
(-0.0359508 -0.0356272 0)
(-0.0276487 -0.0618889 0)
(-0.0177821 -0.0829366 0)
(-0.00805385 -0.0959056 0)
(0.00126797 -0.101124 0)
(0.00941495 -0.0992125 0)
(0.0164647 -0.0919439 0)
(0.0225217 -0.0809712 0)
(0.027617 -0.0677284 0)
(0.0319774 -0.0533459 0)
(0.0357712 -0.0390586 0)
(0.0390666 -0.025494 0)
(0.0420174 -0.0131983 0)
(0.0446751 -0.00266081 0)
(0.0468518 0.0057756 0)
(0.0484588 0.0118504 0)
(0.0494283 0.0155512 0)
(0.0497492 0.0169771 0)
(0.0494574 0.0163324 0)
(0.0485924 0.0139048 0)
(0.0471258 0.010058 0)
(0.0448649 0.00527602 0)
(0.0411911 0.000209531 0)
(0.0370646 -0.00294569 0)
(0.0346682 -0.00483387 0)
(0.0342213 -0.00849119 0)
(0.0310947 -0.0161412 0)
(0.0157146 -0.0172571 0)
(0.00872435 0.0129039 0)
(0.0405687 0.0504237 0)
(-0.314358 0.106206 0)
(0.21105 0.219989 0)
(-0.124611 0.123449 0)
(-0.0173465 0.105696 0)
(-0.029686 0.0883396 0)
(-0.0273333 0.0733625 0)
(-0.0261856 0.0572917 0)
(-0.0253966 0.0389045 0)
(-0.0248796 0.0167241 0)
(-0.02097 -0.0111054 0)
(-0.0132979 -0.0425795 0)
(-0.00435706 -0.07092 0)
(0.0048039 -0.0927198 0)
(0.0125936 -0.104739 0)
(0.0193621 -0.108699 0)
(0.0249245 -0.105742 0)
(0.0294052 -0.0974472 0)
(0.0329449 -0.0855062 0)
(0.0357072 -0.0714459 0)
(0.0379359 -0.0565233 0)
(0.0398613 -0.0418091 0)
(0.0416465 -0.0279868 0)
(0.043425 -0.0155259 0)
(0.04524 -0.00477463 0)
(0.0469625 0.00399619 0)
(0.0484194 0.0105243 0)
(0.0495201 0.0147506 0)
(0.0501598 0.0167441 0)
(0.0502653 0.0166974 0)
(0.0497754 0.0149227 0)
(0.0486138 0.0118423 0)
(0.0466838 0.00798335 0)
(0.0438797 0.00395065 0)
(0.0406039 0.000578154 0)
(0.0376183 -0.00237713 0)
(0.0350116 -0.00593494 0)
(0.0305337 -0.00961826 0)
(0.0191947 -0.00457984 0)
(0.0149616 0.0225578 0)
(0.0967727 0.0493552 0)
(-0.26742 0.0891071 0)
(0.454089 0.261219 0)
(-0.164435 0.116904 0)
(-0.00799525 0.0987742 0)
(-0.0207019 0.0847286 0)
(-0.0156747 0.0706556 0)
(-0.0117261 0.0550429 0)
(-0.00827118 0.0370824 0)
(-0.0059195 0.0148058 0)
(0.00264534 -0.0179861 0)
(0.0122001 -0.0518637 0)
(0.0210138 -0.079982 0)
(0.0283748 -0.0999525 0)
(0.0339629 -0.110929 0)
(0.0379393 -0.113642 0)
(0.0404249 -0.109451 0)
(0.0417186 -0.100091 0)
(0.0421646 -0.087318 0)
(0.0421012 -0.072695 0)
(0.0418546 -0.0575036 0)
(0.0417028 -0.042735 0)
(0.0418418 -0.0290323 0)
(0.0423826 -0.0167713 0)
(0.0433289 -0.00617443 0)
(0.0445686 0.00258003 0)
(0.0458278 0.00926747 0)
(0.0469966 0.0137924 0)
(0.0479049 0.0162019 0)
(0.0484106 0.0166768 0)
(0.0483975 0.0155221 0)
(0.047768 0.0131459 0)
(0.0464583 0.0100226 0)
(0.0444662 0.00663747 0)
(0.0419737 0.00344744 0)
(0.03924 0.000434946 0)
(0.0363514 -0.00255709 0)
(0.0320922 -0.00426987 0)
(0.0228884 0.00264741 0)
(0.0168104 0.0255517 0)
(0.11645 0.0507121 0)
(-0.332207 0.109028 0)
(0.593125 0.305711 0)
(-0.219675 0.118362 0)
(0.00737449 0.0899618 0)
(-0.00831681 0.0786049 0)
(-0.0027029 0.0653041 0)
(0.00394697 0.0496527 0)
(0.00969301 0.0318855 0)
(0.0153502 0.00740949 0)
(0.028387 -0.0271174 0)
(0.0392564 -0.0605383 0)
(0.0475747 -0.0874138 0)
(0.0530808 -0.105526 0)
(0.055795 -0.114495 0)
(0.0561417 -0.11533 0)
(0.0546951 -0.109641 0)
(0.0520893 -0.0992486 0)
(0.0489109 -0.0858921 0)
(0.0456625 -0.0710916 0)
(0.0427479 -0.0560695 0)
(0.0404668 -0.0417215 0)
(0.0389995 -0.0285973 0)
(0.0384041 -0.0169555 0)
(0.0386097 -0.00689261 0)
(0.0394762 0.0015117 0)
(0.0406276 0.0080742 0)
(0.0419256 0.012667 0)
(0.0431574 0.0153158 0)
(0.0441383 0.0161817 0)
(0.0447182 0.0155456 0)
(0.0447796 0.0137764 0)
(0.0442514 0.0112856 0)
(0.0431202 0.00847291 0)
(0.0414443 0.00568562 0)
(0.0393133 0.00310187 0)
(0.0368178 0.000890251 0)
(0.0328466 0.000434125 0)
(0.0228678 0.00826449 0)
(0.0135636 0.0295674 0)
(0.129633 0.0562832 0)
(-0.376979 0.132397 0)
(0.649648 0.332429 0)
(-0.253549 0.128684 0)
(0.0148144 0.0779293 0)
(0.0062339 0.0694064 0)
(0.0129005 0.0574766 0)
(0.0217745 0.0422041 0)
(0.0299342 0.0234532 0)
(0.043265 -0.00482534 0)
(0.0584486 -0.039134 0)
(0.0696847 -0.0702264 0)
(0.0762678 -0.0937509 0)
(0.0784045 -0.108324 0)
(0.0767231 -0.114218 0)
(0.0721911 -0.112699 0)
(0.0658701 -0.105473 0)
(0.0587466 -0.0943216 0)
(0.0516149 -0.0808544 0)
(0.0450899 -0.0664545 0)
(0.0395987 -0.0522063 0)
(0.0354083 -0.0388668 0)
(0.0326235 -0.0268536 0)
(0.0312014 -0.0162853 0)
(0.0309614 -0.00713393 0)
(0.0317006 0.000621289 0)
(0.0329479 0.00681315 0)
(0.0345135 0.0112649 0)
(0.0361772 0.0139804 0)
(0.0377353 0.0150946 0)
(0.0390172 0.0148587 0)
(0.0398836 0.0135993 0)
(0.0402365 0.0116727 0)
(0.0400219 0.00942539 0)
(0.0392139 0.00717882 0)
(0.0378096 0.00522104 0)
(0.0358836 0.00393795 0)
(0.0322137 0.00498967 0)
(0.0213249 0.0146585 0)
(0.00906452 0.0364915 0)
(0.13825 0.0652472 0)
(-0.4066 0.147159 0)
(0.646867 0.350489 0)
(-0.257157 0.120665 0)
(0.023848 0.0411444 0)
(0.0353327 0.0498128 0)
(0.0415431 0.0481731 0)
(0.0500435 0.0332061 0)
(0.0614157 0.0102636 0)
(0.0820334 -0.0220966 0)
(0.0969996 -0.0532864 0)
(0.105004 -0.0788132 0)
(0.106462 -0.0965762 0)
(0.102388 -0.10619 0)
(0.0941631 -0.108383 0)
(0.0833366 -0.104513 0)
(0.0713695 -0.0961765 0)
(0.0594759 -0.0849421 0)
(0.0485081 -0.0721466 0)
(0.0390836 -0.0589535 0)
(0.0315425 -0.0462447 0)
(0.0260349 -0.0345905 0)
(0.022506 -0.0242456 0)
(0.0207566 -0.0151763 0)
(0.0204783 -0.00725158 0)
(0.0213305 -0.000388372 0)
(0.0230036 0.00526036 0)
(0.0250064 0.00942819 0)
(0.0272128 0.0120791 0)
(0.0294302 0.0133169 0)
(0.0314815 0.0133745 0)
(0.0332036 0.0125445 0)
(0.034465 0.0111398 0)
(0.0351676 0.00947023 0)
(0.0352279 0.00785312 0)
(0.0345906 0.00665747 0)
(0.0333079 0.00645798 0)
(0.0300296 0.00934198 0)
(0.0188706 0.0214737 0)
(0.00485853 0.0445992 0)
(0.143309 0.0752878 0)
(-0.426799 0.155836 0)
(0.680642 0.3409 0)
(-0.0572016 0.114693 0)
(0.0786893 0.00548094 0)
(0.120678 0.00542952 0)
(0.117698 0.0117098 0)
(0.11633 -0.000747978 0)
(0.128677 -0.0233079 0)
(0.142049 -0.0451195 0)
(0.147172 -0.0647816 0)
(0.144064 -0.0805783 0)
(0.134491 -0.0910213 0)
(0.120295 -0.0956055 0)
(0.103325 -0.0948023 0)
(0.0853368 -0.0896629 0)
(0.0677904 -0.0814325 0)
(0.0517863 -0.0713227 0)
(0.0379256 -0.0603059 0)
(0.026697 -0.0493099 0)
(0.0181755 -0.0389765 0)
(0.0123144 -0.0296556 0)
(0.00880046 -0.0214281 0)
(0.00724139 -0.0141325 0)
(0.00725461 -0.00760945 0)
(0.00846367 -0.00178192 0)
(0.010751 0.00323946 0)
(0.0132898 0.00706741 0)
(0.0160974 0.00956347 0)
(0.0189946 0.0108208 0)
(0.0218111 0.0110856 0)
(0.024355 0.0106284 0)
(0.0264618 0.00972671 0)
(0.0279971 0.00866041 0)
(0.0288414 0.00774211 0)
(0.0289166 0.00740509 0)
(0.028248 0.00844289 0)
(0.0253783 0.0134145 0)
(0.0148091 0.0278047 0)
(0.00135091 0.0518593 0)
(0.146561 0.0848998 0)
(-0.436675 0.1622 0)
(0.756619 0.29435 0)
(0.335395 0.187596 0)
(0.337154 0.131442 0)
(0.338933 0.0978446 0)
(0.302042 0.074118 0)
(0.26815 0.0459975 0)
(0.246955 0.0158762 0)
(0.225243 -0.0135643 0)
(0.200461 -0.038494 0)
(0.17401 -0.0567758 0)
(0.147157 -0.0679393 0)
(0.120753 -0.0727354 0)
(0.0955371 -0.072516 0)
(0.0722276 -0.068692 0)
(0.0514478 -0.0624982 0)
(0.033731 -0.0549927 0)
(0.0190746 -0.046894 0)
(0.00795754 -0.0389909 0)
(-0.000134181 -0.0315609 0)
(-0.00532006 -0.0248748 0)
(-0.00819006 -0.0189413 0)
(-0.0093363 -0.0134611 0)
(-0.00906317 -0.00838174 0)
(-0.0076254 -0.00369862 0)
(-0.00497815 0.000575166 0)
(-0.00180959 0.00406506 0)
(0.00166869 0.00643081 0)
(0.00520483 0.00765031 0)
(0.00869667 0.0080633 0)
(0.0119307 0.00794231 0)
(0.014725 0.00754029 0)
(0.0169223 0.00711114 0)
(0.0183817 0.00695351 0)
(0.0190125 0.00753295 0)
(0.0188153 0.00986507 0)
(0.0163337 0.0167765 0)
(0.00721934 0.0323941 0)
(-0.00265607 0.0561195 0)
(0.148459 0.0923174 0)
(-0.441623 0.169264 0)
(-0.315751 0.0349443 0)
(0.0937897 0.0617018 0)
(0.16277 0.0498018 0)
(0.161732 0.0302024 0)
(0.158271 0.00927334 0)
(0.153187 -0.00983223 0)
(0.140914 -0.025358 0)
(0.123287 -0.036982 0)
(0.102899 -0.0446121 0)
(0.0814283 -0.0484674 0)
(0.0600849 -0.0491306 0)
(0.039825 -0.0473528 0)
(0.0215887 -0.0439104 0)
(0.00624381 -0.0395358 0)
(-0.00671933 -0.0345743 0)
(-0.0155788 -0.0300851 0)
(-0.0219456 -0.0256936 0)
(-0.0261592 -0.0213916 0)
(-0.0286621 -0.0171808 0)
(-0.0297402 -0.0131031 0)
(-0.0295578 -0.00924542 0)
(-0.0282497 -0.00566903 0)
(-0.025873 -0.00240257 0)
(-0.0223758 0.000428908 0)
(-0.0184237 0.00252624 0)
(-0.0145057 0.00375375 0)
(-0.0105902 0.00432525 0)
(-0.00689385 0.00453042 0)
(-0.00360008 0.00462212 0)
(-0.000891195 0.00484471 0)
(0.00108806 0.00548893 0)
(0.00223145 0.00698768 0)
(0.0026401 0.0105469 0)
(0.000999916 0.018983 0)
(-0.00577607 0.0349598 0)
(-0.0093539 0.0574741 0)
(0.144498 0.097441 0)
(-0.455531 0.177014 0)
(-0.0706474 0.10667 0)
(0.0927928 0.0626242 0)
(0.0914457 0.0296904 0)
(0.0823676 0.019389 0)
(0.0803716 0.0107471 0)
(0.0763214 -0.000755644 0)
(0.069208 -0.0122872 0)
(0.058029 -0.0216193 0)
(0.0449542 -0.0279931 0)
(0.0306664 -0.0313971 0)
(0.0157108 -0.0323887 0)
(0.000455189 -0.0317916 0)
(-0.013551 -0.0304255 0)
(-0.0248493 -0.0287912 0)
(-0.0340152 -0.0269504 0)
(-0.0411578 -0.0248308 0)
(-0.0467021 -0.0222456 0)
(-0.0507754 -0.0193814 0)
(-0.0535263 -0.0164055 0)
(-0.0550619 -0.0134488 0)
(-0.0554662 -0.0106292 0)
(-0.054821 -0.00803228 0)
(-0.0531942 -0.00571095 0)
(-0.0506459 -0.00371452 0)
(-0.0473039 -0.0021227 0)
(-0.0434296 -0.000997824 0)
(-0.0394659 -0.000257947 0)
(-0.0355733 0.000348392 0)
(-0.0318841 0.00107415 0)
(-0.0286582 0.00211564 0)
(-0.0259681 0.00370367 0)
(-0.0236858 0.00632336 0)
(-0.0216561 0.0110951 0)
(-0.0205538 0.0198819 0)
(-0.0219913 0.0346547 0)
(-0.0146185 0.0579736 0)
(0.127649 0.101861 0)
(-0.468858 0.177606 0)
(0.804325 -0.0325618 0)
(0.144216 -0.292046 0)
(-0.0798729 0.00170277 0)
(0.0178858 0.0374856 0)
(0.0182243 0.0221691 0)
(0.00761021 0.0199054 0)
(0.00767593 0.0147623 0)
(0.00638104 0.00510797 0)
(0.00397414 -0.0040987 0)
(-0.00143901 -0.0109341 0)
(-0.00848825 -0.0153746 0)
(-0.0170361 -0.0176496 0)
(-0.0267113 -0.0185971 0)
(-0.0367406 -0.0191517 0)
(-0.0463129 -0.0197525 0)
(-0.054913 -0.0201869 0)
(-0.0624599 -0.0201978 0)
(-0.0689909 -0.0197495 0)
(-0.0745649 -0.0188207 0)
(-0.0791533 -0.0175232 0)
(-0.0827373 -0.0159722 0)
(-0.0853171 -0.0142669 0)
(-0.0869157 -0.0124949 0)
(-0.0875763 -0.0107285 0)
(-0.087354 -0.00902605 0)
(-0.0863196 -0.00743955 0)
(-0.0845797 -0.006019 0)
(-0.0822788 -0.00478039 0)
(-0.0795653 -0.00367072 0)
(-0.0765199 -0.00256714 0)
(-0.0731385 -0.00130627 0)
(-0.0692753 0.000284209 0)
(-0.0648784 0.00245951 0)
(-0.0599709 0.00566552 0)
(-0.0549379 0.0102324 0)
(-0.049202 0.0165046 0)
(-0.0417478 0.0254335 0)
(-0.021697 0.0438026 0)
(0.147792 0.0942476 0)
(-0.461342 0.17613 0)
(0.600173 -0.189566 0)
(-0.348613 -0.0867934 0)
(-0.128292 0.0787497 0)
(-0.0747867 0.0659559 0)
(-0.064851 0.0485493 0)
(-0.0567428 0.0426622 0)
(-0.0495732 0.0377381 0)
(-0.0462325 0.0323433 0)
(-0.0462584 0.0269853 0)
(-0.0491098 0.0208216 0)
(-0.0540129 0.0189335 0)
(-0.0600915 0.0203854 0)
(-0.0667155 0.0226997 0)
(-0.0735352 0.0239972 0)
(-0.0804368 0.0237752 0)
(-0.087338 0.0226942 0)
(-0.0940957 0.0215379 0)
(-0.100529 0.0206199 0)
(-0.106462 0.019955 0)
(-0.111756 0.0194136 0)
(-0.116327 0.0188621 0)
(-0.120138 0.0181943 0)
(-0.123191 0.0173305 0)
(-0.125516 0.0162151 0)
(-0.127162 0.0148121 0)
(-0.128192 0.0130998 0)
(-0.128685 0.0110705 0)
(-0.128719 0.0087402 0)
(-0.128355 0.00615142 0)
(-0.127607 0.00336236 0)
(-0.126399 0.000428244 0)
(-0.1245 -0.00257716 0)
(-0.121492 -0.00546115 0)
(-0.116973 -0.00788648 0)
(-0.110985 -0.00991713 0)
(-0.104672 -0.0133012 0)
(-0.0927869 -0.0188661 0)
(-0.0494201 -0.013774 0)
(0.125196 0.0580819 0)
(-0.486688 0.18714 0)
(0.928804 -0.118111 0)
(-0.410393 -0.119345 0)
(-0.148949 -0.0685368 0)
(-0.139806 -0.0611307 0)
(-0.11994 -0.0708895 0)
(-0.101416 -0.0792116 0)
(-0.0876714 -0.0884102 0)
(-0.0798019 -0.0993087 0)
(-0.077595 -0.108864 0)
(-0.0804348 -0.113822 0)
(-0.0869935 -0.11773 0)
(-0.0944707 -0.120214 0)
(-0.101707 -0.121157 0)
(-0.108641 -0.120404 0)
(-0.115658 -0.118 0)
(-0.123029 -0.114334 0)
(-0.130708 -0.109934 0)
(-0.138461 -0.105192 0)
(-0.14604 -0.100308 0)
(-0.153256 -0.0953615 0)
(-0.160005 -0.0903746 0)
(-0.166244 -0.0853453 0)
(-0.171983 -0.080267 0)
(-0.177271 -0.0751346 0)
(-0.18219 -0.0699451 0)
(-0.186844 -0.0646968 0)
(-0.191363 -0.0593843 0)
(-0.195881 -0.0539892 0)
(-0.200531 -0.0484709 0)
(-0.205426 -0.0427577 0)
(-0.210616 -0.0367368 0)
(-0.216023 -0.0302254 0)
(-0.221463 -0.0229135 0)
(-0.227109 -0.0143455 0)
(-0.233974 -0.0041184 0)
(-0.241569 0.00796254 0)
(-0.239527 0.0237262 0)
(-0.210588 0.0516629 0)
(-0.195327 0.101034 0)
(-0.561519 0.171692 0)
)
;

boundaryField
{
    floor
    {
        type            noSlip;
    }
    ceiling
    {
        type            noSlip;
    }
    sWall
    {
        type            noSlip;
    }
    nWall
    {
        type            noSlip;
    }
    sideWalls
    {
        type            empty;
    }
    glass1
    {
        type            noSlip;
    }
    glass2
    {
        type            noSlip;
    }
    sun
    {
        type            noSlip;
    }
    inlet
    {
        type            fixedValue;
        value           uniform (0.1 -0.1 0);
    }
    outlet
    {
        type            zeroGradient;
    }
}


// ************************************************************************* //
