/*--------------------------------*- C++ -*----------------------------------*\
  =========                 |
  \\      /  F ield         | OpenFOAM: The Open Source CFD Toolbox
   \\    /   O peration     | Website:  https://openfoam.org
    \\  /    A nd           | Version:  6
     \\/     M anipulation  |
\*---------------------------------------------------------------------------*/
FoamFile
{
    version     2.0;
    format      ascii;
    class       volScalarField;
    location    "7700";
    object      epsilon;
}
// * * * * * * * * * * * * * * * * * * * * * * * * * * * * * * * * * * * * * //

dimensions      [0 2 -3 0 0 0 0];

internalField   nonuniform List<scalar> 
778
(
0.00020911
0.000248165
0.000662846
0.000246896
0.0012847
0.00137226
0.000279086
0.000231647
0.00369015
0.00244733
0.000310053
0.000212182
0.00032089
0.00811357
0.00398629
0.000339413
0.000212252
0.000198269
0.000562671
0.0150068
0.00606036
0.000367706
0.000215428
0.000187149
0.00019356
0.00110682
0.0241025
0.00884166
0.000395776
0.000221219
0.000187693
0.000165842
0.000202189
0.00220472
0.0330822
0.0119599
0.00042476
0.00023098
0.000192296
0.000163614
0.000142663
0.000244612
0.00416185
0.0399918
0.0131261
0.000456277
0.000246483
0.000200666
0.000164782
0.000136239
0.000123955
0.000362614
0.00708948
0.0417383
0.0125156
0.000489564
0.000270023
0.000213
0.000167851
0.000134122
0.000111275
0.000116857
0.000714093
0.0136121
0.0286269
0.0104541
0.000524338
0.000301911
0.000229721
0.000173204
0.000133359
0.000106261
9.31438e-05
0.000146069
0.00286264
0.0143375
0.019532
0.00799219
0.000562804
0.000344371
0.000251807
0.000182285
0.000134877
0.000102752
8.5252e-05
8.94008e-05
0.000515301
0.00551803
0.012049
0.0138525
0.00608053
0.000609326
0.00040197
0.000282022
0.000197281
0.000141011
0.000102196
7.98749e-05
7.57122e-05
0.000161848
0.00194647
0.00620655
0.0097209
0.0101411
0.00608257
0.000664205
0.000484787
0.00032398
0.000220888
0.00015466
0.000108486
7.88358e-05
6.86449e-05
0.000101462
0.000738952
0.00306777
0.00590708
0.00780239
0.00777636
0.0044914
0.000625051
0.000385042
0.000255703
0.000177773
0.00012579
8.95178e-05
6.88808e-05
8.52529e-05
0.000350364
0.00158358
0.0035214
0.00531664
0.00688674
0.00503182
0.000868395
0.000476543
0.000304768
0.000211604
0.000153578
0.000116082
9.44068e-05
9.61289e-05
0.000223761
0.000910227
0.00217441
0.00356261
0.00480902
0.00561412
0.000805761
0.0005892
0.000369282
0.000257383
0.000190411
0.000152824
0.000134866
0.000138681
0.000217455
0.000609992
0.00143814
0.00245357
0.00341302
0.00415789
0.180437
0.000762968
0.000705557
0.000442351
0.000314637
0.000236553
0.000194854
0.000180195
0.000188003
0.000251203
0.000496263
0.00104095
0.00176753
0.00249187
0.00304597
0.0272225
0.00705224
0.00128548
0.000526395
0.00037717
0.000292619
0.000242904
0.00022586
0.00023509
0.000289388
0.000456384
0.000822743
0.00134437
0.00188214
0.00228258
0.00640365
0.00714644
0.00407241
0.000781777
0.000441722
0.000354392
0.000300122
0.000274338
0.000279405
0.000323648
0.000443422
0.000693857
0.00106652
0.00146927
0.0017544
0.00255931
0.00293013
0.00319537
0.00690965
0.00321249
0.00142705
0.000537809
0.000416542
0.000363337
0.000331455
0.000327789
0.000358529
0.000443463
0.000614988
0.000875593
0.00116526
0.00136099
0.00138128
0.00152976
0.00257532
0.00337811
0.00504379
0.00415514
0.00222815
0.000641072
0.000626935
0.000474245
0.000424197
0.000396872
0.000387929
0.000405427
0.000462306
0.000577533
0.000755173
0.000956461
0.0010869
0.000961319
0.00141423
0.00302272
0.00328027
0.00241206
0.00469511
0.00250608
0.00103287
0.000435123
0.000476845
0.000492421
0.000468905
0.00045894
0.000457764
0.00047146
0.000511096
0.000589888
0.000713115
0.000860112
0.000976985
0.000996334
0.00201277
0.00342117
0.00325432
0.0026265
0.00441921
0.000579758
0.000482035
0.000359516
0.00040107
0.000442254
0.000477297
0.000499274
0.000521507
0.000548516
0.000589437
0.000655756
0.000756532
0.000890255
0.00105102
0.00131487
0.00271944
0.00356802
0.00302049
0.0025801
0.000239865
0.000370185
0.000359467
0.000311244
0.000346304
0.000389195
0.000444201
0.000501407
0.000556852
0.000613104
0.000676238
0.000756817
0.00086782
0.00102581
0.00126883
0.00175567
0.00314159
0.00342879
0.00265124
0.00229177
0.000262406
0.000294849
0.000295569
0.000302631
0.000299115
0.000335189
0.000391001
0.000464101
0.000547961
0.000638156
0.000736473
0.00085107
0.000997658
0.00120259
0.00152706
0.00213011
0.00318499
0.00309968
0.00225544
0.0019121
0.000267942
0.000245205
0.000268062
0.000823167
0.000263699
0.000283579
0.000330126
0.000401427
0.00049573
0.000608881
0.00073893
0.000890947
0.00107881
0.00133174
0.00170155
0.00227395
0.00289569
0.00265326
0.00189547
0.00155262
0.000255604
0.000208235
0.000577266
0.000620634
0.000257987
0.000239162
0.000271265
0.0003293
0.000415749
0.000530758
0.000673691
0.00084666
0.0010601
0.00133348
0.00170053
0.00213833
0.00230893
0.00212563
0.00158397
0.00125082
0.000230706
0.00019363
0.00037778
0.000490583
0.000233371
0.000204935
0.000220998
0.000261008
0.000327711
0.000425192
0.000555689
0.000722087
0.000928429
0.0011846
0.0014863
0.00177434
0.00165182
0.00157233
0.00131675
0.0010053
0.000196582
0.000161774
0.000260656
0.000397158
0.000207339
0.00017764
0.000181834
0.000204533
0.00024784
0.000316903
0.000416349
0.000548539
0.00071683
0.000914582
0.00112512
0.0012212
0.00108336
0.00109105
0.001094
0.000812101
0.000165014
0.000131985
0.000188477
0.000327726
0.000183968
0.000156144
0.000152877
0.000162216
0.000184837
0.000224798
0.000286069
0.000371996
0.000478987
0.000604869
0.000700054
0.000716058
0.000652567
0.000741729
0.000924017
0.000671866
0.000138693
0.000107337
0.000141884
0.000272863
0.000165129
0.000139087
0.000131894
0.000132495
0.000140154
0.000156992
0.000185574
0.00022611
0.00028002
0.000324508
0.00036754
0.000393827
0.000392529
0.000533191
0.000811162
0.00058278
0.000117289
8.7703e-05
0.000110568
0.000227139
0.000149233
0.000125783
0.000116457
0.000112222
0.000110736
0.000112683
0.0001192
0.000131307
0.000142613
0.000166404
0.000193561
0.000225178
0.000267624
0.000433238
0.000745638
0.000535731
0.000100058
7.22051e-05
8.88269e-05
0.000187073
0.000135218
0.000114962
0.000104942
9.81764e-05
9.21307e-05
8.61499e-05
8.14386e-05
7.87753e-05
8.2717e-05
9.45596e-05
0.000117195
0.000153689
0.000216693
0.000391904
0.000708614
0.000516912
8.60434e-05
5.99194e-05
7.35045e-05
0.000149361
0.000122458
0.000105745
9.59284e-05
8.82659e-05
8.02549e-05
7.1109e-05
6.19025e-05
5.54524e-05
5.59274e-05
6.47542e-05
8.57781e-05
0.000125176
0.000197227
0.000374104
0.000686086
0.000514571
7.45046e-05
5.01355e-05
6.30385e-05
8.95808e-05
0.000110154
9.75494e-05
8.84442e-05
8.08574e-05
7.26179e-05
6.27573e-05
5.23743e-05
4.50288e-05
4.38544e-05
5.11417e-05
7.14649e-05
0.000112244
0.000188602
0.000363593
0.000669552
0.000518643
6.48431e-05
4.26456e-05
4.81252e-05
5.91315e-05
8.97488e-05
8.98044e-05
8.18667e-05
7.48793e-05
6.72739e-05
5.81446e-05
4.81819e-05
4.03673e-05
3.80962e-05
4.39523e-05
6.31845e-05
0.000104573
0.000183566
0.000354959
0.00065554
0.000525576
5.65394e-05
3.8157e-05
4.0933e-05
0.000154788
6.86847e-05
8.00568e-05
7.57379e-05
6.96866e-05
6.30719e-05
5.51585e-05
4.63981e-05
3.8782e-05
3.53654e-05
3.96105e-05
5.72704e-05
9.87303e-05
0.000180016
0.000347446
0.000643753
0.000534816
4.91115e-05
3.6419e-05
0.000112962
0.000100239
0.000110975
6.91923e-05
6.93572e-05
6.48844e-05
5.94042e-05
5.27691e-05
4.53375e-05
3.84444e-05
3.44269e-05
3.68673e-05
5.24451e-05
9.34596e-05
0.000177266
0.000341782
0.000635684
0.000547784
4.20184e-05
6.99945e-05
7.53675e-05
0.000143998
8.20567e-05
6.33646e-05
6.02316e-05
5.59695e-05
5.05324e-05
4.43302e-05
3.83602e-05
3.43406e-05
3.53587e-05
4.83334e-05
8.80818e-05
0.000174722
0.000338786
0.000633739
0.000567181
3.63731e-05
5.20377e-05
0.000166227
0.000104324
6.7097e-05
5.6365e-05
5.27124e-05
4.83031e-05
4.31388e-05
3.81336e-05
3.44903e-05
3.48654e-05
4.51407e-05
8.22924e-05
0.000171496
0.000338644
0.000640576
0.000596356
2.68906e-05
0.000367303
0.000212851
8.04293e-05
5.83304e-05
5.03501e-05
4.62238e-05
4.17673e-05
3.76371e-05
3.46678e-05
3.4958e-05
4.37483e-05
7.65417e-05
0.000166575
0.000340451
0.000658425
0.000638517
0.000329856
0.0010709
0.000176208
7.26563e-05
5.4484e-05
4.55754e-05
4.0623e-05
3.69798e-05
3.49071e-05
3.5711e-05
4.40147e-05
7.29386e-05
0.000159559
0.000342146
0.000688335
0.000695787
0.000565325
0.00159391
0.000336773
9.95236e-05
5.7847e-05
4.2338e-05
3.68556e-05
3.55233e-05
3.76465e-05
4.66642e-05
7.37202e-05
0.000152234
0.000341257
0.000729413
0.000768365
0.000914133
0.0053291
0.000958418
0.00023294
7.65617e-05
4.14475e-05
3.75372e-05
4.18291e-05
5.37958e-05
8.04819e-05
0.000151606
0.000337228
0.000778332
0.00085432
0.00199122
0.0129273
0.00308628
0.000659798
0.00010617
4.60358e-05
5.04169e-05
6.91572e-05
9.84275e-05
0.000161279
0.000337512
0.000829343
0.000950387
0.00302255
0.0105885
0.00328346
0.000739989
0.000104741
6.9783e-05
9.87129e-05
0.000136851
0.000188482
0.000352282
0.000874575
0.00105364
0.00313926
0.00771532
0.00296239
0.000564544
0.000131233
0.000153214
0.000209766
0.00024738
0.000386546
0.000918032
0.00116377
0.00300053
0.00641941
0.00232822
0.000464477
0.000263789
0.000338114
0.000361148
0.00045374
0.000974448
0.00128291
0.00279788
0.0059387
0.00202062
0.000571879
0.000564394
0.000566103
0.000577966
0.00106353
0.00141156
0.00294964
0.00449519
0.00206726
0.00101054
0.000924343
0.000798507
0.00121141
0.00155957
0.00345776
0.00373602
0.00218607
0.00155159
0.00118259
0.00145624
0.00174103
0.00358602
0.0043423
0.00260877
0.00186349
0.00185941
0.00197003
0.00339649
0.00416037
0.00308554
0.00253298
0.00225538
0.00302533
0.00527804
0.00376853
0.00259388
0.00314026
0.00448621
0.00298438
0.00453623
0.00347524
0.00349204
)
;

boundaryField
{
    floor
    {
        Cmu             0.09;
        kappa           0.41;
        E               9.8;
        type            epsilonWallFunction;
        value           nonuniform List<scalar> 
36
(
0.000664205
0.000239865
0.000262406
0.000267942
0.000255604
0.000230706
0.000196582
0.000165014
0.000138693
0.000117289
0.000100058
8.60434e-05
7.45046e-05
6.48431e-05
5.65394e-05
4.91115e-05
4.20184e-05
3.63731e-05
2.68906e-05
2.68906e-05
5.20377e-05
7.53675e-05
0.000100239
0.000166227
0.000367303
0.000329856
0.000664205
0.000868395
0.000805761
0.000762968
0.000239865
0.000762968
0.000579758
0.00128548
0.00103287
0.00142705
)
;
    }
    ceiling
    {
        Cmu             0.09;
        kappa           0.41;
        E               9.8;
        type            epsilonWallFunction;
        value           nonuniform List<scalar> 
43
(
0.00441921
0.00250608
0.00222815
0.00241206
0.0026265
0.0025801
0.00229177
0.0019121
0.00155262
0.00125082
0.0010053
0.000812101
0.000671866
0.00058278
0.000535731
0.000516912
0.000514571
0.000518643
0.000525576
0.000534816
0.000547784
0.000567181
0.000596356
0.000638517
0.000695787
0.000768365
0.00085432
0.000950387
0.00105364
0.00116377
0.00128291
0.00141156
0.00155957
0.00174103
0.00197003
0.00225538
0.00259388
0.00298438
0.00347524
0.00349204
0.0044914
0.00503182
0.00705224
)
;
    }
    sWall
    {
        Cmu             0.09;
        kappa           0.41;
        E               9.8;
        type            epsilonWallFunction;
        value           nonuniform List<scalar> 9(0.0125156 0.0104541 0.00799219 0.00608053 0.00608257 0.0044914 0.00504379 0.00469511 0.00441921);
    }
    nWall
    {
        Cmu             0.09;
        kappa           0.41;
        E               9.8;
        type            epsilonWallFunction;
        value           nonuniform List<scalar> 
14
(
0.000329856
0.000565325
0.000914133
0.00313926
0.00300053
0.00279788
0.00294964
0.00345776
0.00358602
0.00339649
0.00302533
0.00314026
0.00453623
0.00349204
)
;
    }
    sideWalls
    {
        type            empty;
    }
    glass1
    {
        Cmu             0.09;
        kappa           0.41;
        E               9.8;
        type            epsilonWallFunction;
        value           nonuniform List<scalar> 9(0.00020911 0.000662846 0.00137226 0.00244733 0.00398629 0.00606036 0.00884166 0.0119599 0.0131261);
    }
    glass2
    {
        Cmu             0.09;
        kappa           0.41;
        E               9.8;
        type            epsilonWallFunction;
        value           nonuniform List<scalar> 2(0.00199122 0.00302255);
    }
    sun
    {
        Cmu             0.09;
        kappa           0.41;
        E               9.8;
        type            epsilonWallFunction;
        value           nonuniform List<scalar> 
14
(
0.00020911
0.000248165
0.000246896
0.000279086
0.000310053
0.000339413
0.000367706
0.000395776
0.00042476
0.000456277
0.000489564
0.000524338
0.000562804
0.000609326
)
;
    }
    Table_master
    {
        Cmu             0.09;
        kappa           0.41;
        E               9.8;
        type            epsilonWallFunction;
        value           nonuniform List<scalar> 9(0.000577266 0.00037778 0.000260656 0.000188477 0.000141884 0.000110568 8.88269e-05 7.35045e-05 6.30385e-05);
    }
    Table_slave
    {
        Cmu             0.09;
        kappa           0.41;
        E               9.8;
        type            epsilonWallFunction;
        value           nonuniform List<scalar> 9(0.000823167 0.000620634 0.000490583 0.000397158 0.000327726 0.000272863 0.000227139 0.000187073 0.000149361);
    }
    inlet
    {
        type            turbulentMixingLengthDissipationRateInlet;
        mixingLength    0.00315;
        phi             phi;
        k               k;
        value           uniform 1.49737;
    }
    outlet
    {
        type            zeroGradient;
    }
}


// ************************************************************************* //
