/*--------------------------------*- C++ -*----------------------------------*\
  =========                 |
  \\      /  F ield         | OpenFOAM: The Open Source CFD Toolbox
   \\    /   O peration     | Website:  https://openfoam.org
    \\  /    A nd           | Version:  6
     \\/     M anipulation  |
\*---------------------------------------------------------------------------*/
FoamFile
{
    version     2.0;
    format      ascii;
    class       surfaceScalarField;
    location    "7700";
    object      phi;
}
// * * * * * * * * * * * * * * * * * * * * * * * * * * * * * * * * * * * * * //

dimensions      [1 0 -1 0 0 0 0];

internalField   nonuniform List<scalar> 
1482
(
-0.00279983
0.00286387
-0.00348416
0.000684331
-0.00414501
0.000660843
-0.00475929
0.00061428
-0.00528089
0.000521608
-0.00569306
0.000412171
-0.00598454
0.00029148
-0.00614224
0.000157699
-0.00614879
6.54896e-06
-0.00597819
-0.000170605
-0.00560044
-0.000377747
-0.00498448
-0.000615961
-0.00406009
-0.000924394
-0.0025809
-0.00147918
-0.00257798
-6.5308e-05
7.01615e-05
0.000778095
-0.000843403
0.00143055
-0.000652458
0.00183002
-0.000399465
0.00205176
-0.000221737
0.00215625
-0.00010449
0.00220355
-4.72999e-05
0.00222622
-2.26742e-05
0.00223582
-9.60169e-06
0.00223661
-7.88157e-07
0.0022295
7.10856e-06
0.0022105
1.90039e-05
0.00216628
4.42191e-05
0.00206366
0.000102621
0.0018473
0.00021636
0.00149036
0.000356941
0.00101964
0.000470718
0.00102608
-0.00204044
0.00507463
-0.00290866
0.00155255
-0.00369462
0.00144681
-0.00434583
0.00126549
-0.00488331
0.00105909
-0.00531234
0.000841199
-0.00563112
0.000610257
-0.00583281
0.000359394
-0.00590672
8.04531e-05
-0.00584496
-0.000232369
-0.0056417
-0.000581008
-0.00528562
-0.000972041
-0.00477554
-0.00143447
-0.00428954
-0.00196518
-0.00470565
-0.00216187
-0.00311866
-0.00158155
-0.00163456
-0.00147841
-0.00161971
0.00131721
-0.00123684
0.00166063
-0.00118682
0.00191164
-0.000903466
0.00210233
-0.000590158
0.00220931
-0.000328709
0.00221821
-0.000113394
0.00222031
-4.9398e-05
0.00222199
-2.43588e-05
0.00222295
-1.05625e-05
0.00222291
-7.47523e-07
0.0022215
8.52702e-06
0.00221726
2.32398e-05
0.00220461
5.68667e-05
0.0021427
0.000164532
0.00189324
0.000465825
0.00146426
0.000785919
0.000901508
0.00103347
0.00194447
-0.00148833
0.00682088
-0.00235933
0.00242356
-0.00312943
0.00221691
-0.00371381
0.00184986
-0.00418465
0.00152993
-0.00455631
0.00121286
-0.00483057
0.000884519
-0.00500419
0.000533008
-0.00507072
0.000146988
-0.00502108
-0.000282011
-0.0048445
-0.000757588
-0.00453356
-0.00128298
-0.0041191
-0.00184893
-0.00372186
-0.00236242
-0.0033017
-0.00258203
-0.00237029
-0.00251296
-0.00127593
-0.00257277
-0.00288281
0.00114932
-0.0023717
0.00165225
-0.00168976
0.00195008
-0.00120129
0.00214219
-0.000782275
0.00217106
-0.000357571
0.00205782
0.00200857
0.00198437
0.00197396
0.00197337
0.00198205
0.00200544
0.00206246
0.00222715
0.00186882
0.000824152
0.00142142
0.00123332
0.000802694
0.00165219
0.0027732
-0.00110615
0.00825824
-0.00192819
0.0032456
-0.00257036
0.00285908
-0.00303083
0.00231033
-0.0033985
0.00189761
-0.00368743
0.00150179
-0.00390062
0.00109771
-0.00403623
0.000668615
-0.00408672
0.000197481
-0.0040389
-0.00032984
-0.00388046
-0.000916027
-0.00360733
-0.00155611
-0.00324218
-0.00221409
-0.00282085
-0.00278375
-0.00228207
-0.00312081
-0.00156296
-0.00323208
-0.000875247
-0.00326048
-0.000696881
-0.00306118
0.00143976
-0.0021212
0.0013736
-0.00230554
0.00168982
-0.00200598
0.00200259
-0.00151406
0.00226893
-0.00104863
0.00254549
-0.000634126
0.00285901
-0.000313676
0.00302603
-0.000167167
0.00309073
-6.4854e-05
0.00307363
1.6946e-05
0.00298353
8.99432e-05
0.00282148
0.000161891
0.00257974
0.000241589
0.00223542
0.000344164
0.00173133
0.000503944
0.00159539
0.000960085
0.00126858
0.00156013
0.00074311
0.00217767
0.00355061
-0.000803859
0.00945529
-0.00158014
0.00402188
-0.00204895
0.00332789
-0.0023648
0.00262618
-0.00260928
0.00214209
-0.0027949
0.00168741
-0.0029267
0.0012295
-0.00300538
0.0007473
-0.00302442
0.000216514
-0.00296718
-0.000387074
-0.00282045
-0.00106276
-0.00257736
-0.0017992
-0.00224453
-0.00254691
-0.00182911
-0.00319917
-0.00132474
-0.00362518
-0.000748977
-0.00380784
-0.000218275
-0.00379118
0.000258976
-0.00353843
0.00112057
-0.00298279
0.00148723
-0.00267221
0.0017468
-0.00226554
0.00199962
-0.00176689
0.00222972
-0.00127872
0.00244413
-0.000848539
0.00264518
-0.000514727
0.00275523
-0.000277212
0.00279148
-0.000101102
0.00276566
4.27644e-05
0.00268423
0.00017137
0.00254976
0.000296365
0.00236113
0.000430217
0.00211606
0.000589234
0.00182265
0.000797356
0.00161787
0.00116486
0.00147752
0.00170048
0.00129966
0.00235552
0.00228555
0.00256473
0.00132209
0.000998396
0.00187852
-0.000527608
0.00199766
-0.000575928
0.0104776
-0.00132497
0.00477092
-0.00158478
0.00358771
-0.00175087
0.00279226
-0.00186498
0.0022562
-0.00193657
0.001759
-0.00197209
0.00126503
-0.00197586
0.000751067
-0.00194468
0.000185334
-0.00185687
-0.000474882
-0.00170273
-0.00121691
-0.00147241
-0.00202952
-0.00116889
-0.00285044
-0.000797952
-0.0035701
-0.000379343
-0.00404379
6.02238e-05
-0.00424741
0.000465197
-0.00419615
0.00083971
-0.00391294
0.00129125
-0.00343433
0.00159077
-0.00297173
0.00179475
-0.00246952
0.00196673
-0.00193886
0.00211877
-0.00143076
0.00225352
-0.000983293
0.00235849
-0.000619693
0.00241671
-0.000335435
0.00242785
-0.000112241
0.00239712
7.34929e-05
0.00232937
0.000239122
0.00222849
0.000397249
0.00209863
0.000560071
0.00194699
0.000740879
0.00178812
0.00095622
0.00169817
0.0012548
0.00175594
0.00164272
0.00196693
0.00214453
0.00220734
0.00232432
0.00171637
0.00148936
0.000799368
0.000389398
0.00289473
-0.000543462
0.0115133
-0.0012438
0.00547125
-0.00119237
0.00353628
-0.00120094
0.00280084
-0.00119347
0.00224873
-0.00116013
0.00172566
-0.00110311
0.001208
-0.0010281
0.000676064
-0.000929628
8.68595e-05
-0.000780708
-0.000623802
-0.00059175
-0.00140586
-0.000352415
-0.00226885
-6.98405e-05
-0.00313301
0.000233654
-0.00387359
0.00054253
-0.00435266
0.000836974
-0.00454185
0.00109966
-0.00445883
0.00133322
-0.0041465
0.0015656
-0.0036667
0.00172603
-0.00313216
0.0018267
-0.0025702
0.00189741
-0.00200957
0.00195377
-0.00148713
0.00200092
-0.00103044
0.00203351
-0.000652285
0.00204579
-0.000347713
0.00203431
-0.000100758
0.0019998
0.000107996
0.0019454
0.000293525
0.00187496
0.000467692
0.00179381
0.000641221
0.00171067
0.000824013
0.00164083
0.00102607
0.00162762
0.00126801
0.00171549
0.00155485
0.00192502
0.001935
0.00217344
0.0020759
0.00218085
0.00148195
0.0016411
0.000929148
0.00463904
-0.000483613
0.0125324
-0.00105172
0.00603936
-0.00069788
0.00318244
-0.000637317
0.00274028
-0.000569157
0.00218057
-0.00046463
0.00162114
-0.000335699
0.00107907
-0.000184529
0.000524894
4.8069e-06
-0.000102477
0.000222995
-0.00084199
0.00046244
-0.00164531
0.00071939
-0.0025258
0.000975178
-0.0033888
0.00120262
-0.00410103
0.00140091
-0.00455095
0.00156148
-0.00470241
0.00167914
-0.00457649
0.00175868
-0.00422603
0.00181246
-0.00372048
0.00182348
-0.00314317
0.00179979
-0.0025465
0.00176023
-0.00197
0.00171958
-0.00144648
0.0016852
-0.000996061
0.00165696
-0.000624042
0.00163083
-0.000321586
0.00160195
-7.18802e-05
0.00156811
0.000141835
0.00152962
0.000332023
0.00148791
0.000509394
0.00144636
0.000682776
0.00141149
0.000858877
0.00139478
0.00104278
0.00142036
0.00124243
0.00151653
0.00145868
0.00173075
0.00172079
0.0020121
0.00179455
0.00211737
0.00137668
0.00165328
0.00139325
0.00666017
0.00297643
0.0101431
0.00202098
0.00699481
0.000868136
0.00433527
0.000369746
0.00323867
0.000212733
0.00233758
0.000269021
0.00156485
0.00042289
0.000925198
0.000636816
0.000310967
0.000896137
-0.000361797
0.00116092
-0.00110677
0.00143909
-0.00192348
0.00170538
-0.0027921
0.00193044
-0.00361386
0.00209023
-0.00426082
0.0021791
-0.00463982
0.00219994
-0.00472325
0.00216173
-0.00453827
0.00207818
-0.00414248
0.00196447
-0.00360677
0.00182613
-0.00300483
0.00167517
-0.00239554
0.00152835
-0.00182319
0.00140016
-0.00131829
0.00129859
-0.000894498
0.00122466
-0.000550103
0.00117335
-0.000270283
0.00113739
-3.59168e-05
0.00111154
0.000167683
0.00109242
0.000351144
0.00107794
0.000523871
0.00106831
0.00069241
0.00106659
0.000860592
0.00107955
0.00102981
0.00112131
0.00120068
0.00121157
0.00136841
0.00139277
0.00153959
0.00164242
0.0015449
0.00174727
0.00127181
0.000409519
0.00273102
0.00745561
0.004031
0.00625237
0.00366696
0.00735885
0.00254153
0.0054607
0.00188835
0.00389185
0.00153177
0.00269416
0.00138688
0.00170973
0.00142066
0.000891422
0.00159506
0.000136567
0.00184705
-0.000613787
0.00212399
-0.00138371
0.00240322
-0.00220271
0.00264734
-0.00303622
0.00281477
-0.0037813
0.00287872
-0.00432478
0.00283618
-0.00459728
0.00270117
-0.00458825
0.00249617
-0.00433326
0.00224554
-0.00389185
0.00197207
-0.00333329
0.00169287
-0.00272563
0.00142511
-0.00212777
0.0011866
-0.00158468
0.000991872
-0.00112356
0.000846828
-0.000749454
0.0007499
-0.000453175
0.00069194
-0.000212323
0.000661983
-5.95977e-06
0.000651347
0.000178319
0.000653248
0.000349243
0.000662914
0.000514204
0.000677819
0.000677505
0.000697088
0.000841323
0.000721168
0.00100573
0.000752848
0.001169
0.000792883
0.00132838
0.000818996
0.00151348
0.000513011
0.00185085
-0.000691346
0.00247591
-0.00192063
0.0039602
0.00563965
0.00240959
0.0040073
0.00330459
0.00646385
0.00324856
0.00551673
0.00303773
0.00410267
0.00284666
0.00288523
0.00272338
0.00183301
0.00270949
0.000905301
0.00279846
4.75987e-05
0.00296035
-0.00077568
0.00317076
-0.00159412
0.00338764
-0.00241959
0.00355089
-0.00319949
0.00360592
-0.00383633
0.0035263
-0.00424517
0.00331767
-0.00438866
0.00300636
-0.00427694
0.00262693
-0.00395383
0.00221291
-0.00347784
0.00179402
-0.00291439
0.00139411
-0.00232572
0.00103481
-0.00176847
0.00073582
-0.00128568
0.000510634
-0.000898374
0.000356997
-0.000595817
0.000265431
-0.000361609
0.00021914
-0.000166033
0.000204282
8.89856e-06
0.000210659
0.000171942
0.000230704
0.000329198
0.000259434
0.000485474
0.000292813
0.000644125
0.000326272
0.000807864
0.000353476
0.00097853
0.000366672
0.00115581
0.000351652
0.0013434
0.000229861
0.00163527
-0.000241821
0.00232235
-0.000911442
0.0031452
-0.00112105
0.00416956
0.00463541
0.0014571
0.00274444
0.00274869
0.00517226
0.00343287
0.00483255
0.00371883
0.00381671
0.00381719
0.00278687
0.00384526
0.00180495
0.00388149
0.000869067
0.00395089
-2.18057e-05
0.00406112
-0.000885907
0.0042011
-0.0017341
0.00431917
-0.00253767
0.00434469
-0.00322501
0.00422632
-0.00371798
0.00395209
-0.00397094
0.00354461
-0.0039812
0.00304385
-0.00377619
0.00249395
-0.00340393
0.00193386
-0.00291775
0.00139799
-0.00237852
0.000913949
-0.00184168
0.000508843
-0.00136336
0.000201375
-0.000978213
-4.2601e-06
-0.000692738
-0.000125905
-0.000474171
-0.00018927
-0.000298243
-0.000215689
-0.000139613
-0.000216852
1.00621e-05
-0.000199518
0.000154607
-0.000168075
0.000297755
-0.000125981
0.00044338
-7.76325e-05
0.000595776
-3.02204e-05
0.000760452
3.71332e-06
0.000944595
2.04782e-06
0.00115747
-7.82834e-05
0.00142374
-0.000330352
0.0018874
-0.000887699
0.00287972
-0.00162018
0.00387751
-0.00163606
0.00418524
0.00313016
0.00217372
0.000796698
0.00294495
0.00440102
0.00359482
0.00418267
0.00416466
0.00324687
0.00449216
0.00245936
0.0046664
0.0016307
0.0047834
0.000752067
0.00488867
-0.000127074
0.00499563
-0.000992867
0.00507378
-0.00181224
0.00505727
-0.00252117
0.00488612
-0.00305387
0.00453809
-0.00336995
0.00403218
-0.00346505
0.00341344
-0.00336247
0.00273286
-0.00309562
0.00203944
-0.00271052
0.00137173
-0.00225005
0.000769405
-0.00177619
0.000260918
-0.00133319
-0.00011622
-0.000986226
-0.000358988
-0.000735443
-0.000497538
-0.000554186
-0.000570205
-0.000401502
-0.000606368
-0.000262078
-0.000618675
-0.000127306
-0.000612702
4.08884e-06
-0.000590505
0.00013241
-0.000552822
0.000260071
-0.00050103
0.000391587
-0.000438687
0.000533432
-0.000373323
0.000695087
-0.000319231
0.000890502
-0.000304101
0.00114234
-0.000378317
0.00149799
-0.000592407
0.00210168
-0.000971891
0.0032596
-0.00184021
0.00474611
-0.00221807
0.00456333
0.00105707
-0.00157789
0.00261976
0.00111927
0.00170386
0.00335126
0.00195069
0.00435363
0.0022445
0.00485742
0.00195557
0.00517216
0.00131596
0.00540084
0.000523394
0.00557976
-0.000305986
0.00567983
-0.00109292
0.00563849
-0.00177089
0.00540478
-0.00228745
0.00496708
-0.00261617
0.00435331
-0.00275619
0.00361629
-0.00272804
0.0028162
-0.0025624
0.00200333
-0.00228276
0.00122692
-0.00193411
0.000518926
-0.00154205
-6.88646e-05
-0.0011884
-0.000492844
-0.000909215
-0.000752027
-0.000727042
-0.000895986
-0.000591479
-0.000973822
-0.000476343
-0.00101276
-0.000362556
-0.00102974
-0.000245098
-0.00103205
-0.000124992
-0.0010216
-6.36941e-06
-0.000996972
0.000107784
-0.000955738
0.000218837
-0.000896426
0.000332274
-0.000820031
0.000457036
-0.000731294
0.000606348
-0.000640556
0.000799758
-0.000565578
0.00106735
-0.000526908
0.00145931
-0.000501881
0.0020768
-0.000330648
0.00308881
-6.68037e-05
0.00448264
0.000172436
0.00432451
0.00138336
0.00288152
0.00457019
0.00487071
0.00165017
0.00535713
0.00175808
0.00559354
0.00171916
0.00582516
0.00108435
0.00601327
0.000335297
0.00608056
-0.000373246
0.00595527
-0.000967599
0.00560382
-0.00141941
0.00503866
-0.00172227
0.00430651
-0.00188404
0.00346535
-0.00191504
0.00257355
-0.00183626
0.00168635
-0.00167521
0.000837167
-0.00143358
7.03927e-05
-0.00116735
-0.000549974
-0.000921688
-0.000979768
-0.000758614
-0.00123892
-0.000650063
-0.00138762
-0.000578332
-0.00146693
-0.000512147
-0.00150696
-0.000436294
-0.00152378
-0.000345722
-0.00152649
-0.000242389
-0.00151977
-0.000131719
-0.00150499
-2.11524e-05
-0.00147989
8.26779e-05
-0.00143973
0.000178673
-0.0013802
0.00027274
-0.00129905
0.000375886
-0.00119639
0.000503689
-0.00107391
0.000677258
-0.000930728
0.000924101
-0.000748858
0.00127734
-0.000454606
0.00178247
9.9554e-05
0.0025348
0.000892544
0.00368996
0.00133287
0.00388456
0.00287792
0.00793009
0.00536828
0.00580965
0.00387854
0.00556179
0.00196705
0.00563441
0.00101177
0.0056004
0.000369367
0.00535839
-0.000131186
0.00489677
-0.000505943
0.00425557
-0.00077819
0.00348795
-0.000954649
0.00264652
-0.00104263
0.0017719
-0.00104043
0.000900595
-0.000964975
6.82887e-05
-0.000842919
-0.000662255
-0.000703051
-0.00122891
-0.000600711
-0.00161762
-0.000532989
-0.00186723
-0.000509006
-0.00201445
-0.000502821
-0.00210003
-0.000492716
-0.00214812
-0.000464017
-0.00217226
-0.000412104
-0.00218005
-0.000337902
-0.00217664
-0.0002458
-0.00216586
-0.000142523
-0.00215031
-3.67417e-05
-0.00212988
6.22167e-05
-0.00210067
0.000149442
-0.00205746
0.000229534
-0.00199472
0.000313161
-0.00190497
0.000413966
-0.00177579
0.000548067
-0.00158612
0.000734328
-0.00130022
0.000991202
-0.000844484
0.00132643
-6.84116e-05
0.00175845
0.00110452
0.00251704
0.00165381
0.00333534
0.00470246
0.00409087
0.001524
0.00449262
0.00347681
0.00372567
0.00273404
0.00322851
0.00150899
0.00288878
0.000709158
0.00252588
0.000231758
0.00208047
-6.0507e-05
0.00154129
-0.000239019
0.000926393
-0.000339773
0.000252329
-0.000368584
-0.000444068
-0.00034405
-0.0011036
-0.000305466
-0.00167202
-0.000274539
-0.00211275
-0.00026235
-0.00242909
-0.000284396
-0.00263504
-0.00032704
-0.00276767
-0.000376356
-0.00285543
-0.000415001
-0.00291586
-0.000432204
-0.00295706
-0.000422721
-0.00298322
-0.00038588
-0.00299698
-0.000324103
-0.00300047
-0.000242334
-0.00299551
-0.000147559
-0.00298425
-4.80998e-05
-0.00296996
4.78232e-05
-0.00295309
0.000132523
-0.00292932
0.000205765
-0.00289209
0.000276001
-0.00283093
0.000352925
-0.00272832
0.000445555
-0.00255552
0.000561535
-0.00226735
0.000702862
-0.00179472
0.000853432
-0.00101246
0.000975674
0.000310356
0.00119372
0.000868469
0.00277684
0.00575297
-0.00263282
-0.00680749
-0.00743409
-0.00747975
-0.00375796
-0.00215212
-0.00168358
0.00140247
-0.000769275
0.00181979
-0.000567193
0.00130696
-0.000642576
0.000784583
-0.000822755
0.000411962
-0.00105793
0.000174686
-0.00134341
4.64636e-05
-0.00168325
3.99355e-08
-0.00205633
4.46314e-06
-0.00243006
2.96495e-05
-0.00277847
4.28968e-05
-0.0030766
2.35419e-05
-0.00330366
-3.53224e-05
-0.00345612
-0.000131946
-0.00355703
-0.000226096
-0.00363171
-0.000301601
-0.00369351
-0.000353075
-0.00374735
-0.000378234
-0.00379416
-0.000375787
-0.00383391
-0.000346048
-0.00386668
-0.000291319
-0.00389287
-0.000216215
-0.00391267
-0.000127916
-0.00392437
-3.66033e-05
-0.00392187
4.51339e-05
-0.00390122
0.000111732
-0.00386423
0.000168732
-0.00381129
0.000223129
-0.00374023
0.000282042
-0.00364716
0.00035272
-0.00352602
0.000440625
-0.00336349
0.000540507
-0.00315021
0.000640192
-0.00301333
0.000838676
-0.0033751
0.00155518
-0.00321087
0.00261216
0.00273904
-0.00737928
0.00102556
-0.00814747
-0.00671152
-0.00719369
-0.00310585
-0.00566936
-0.000121802
-0.00457674
0.000727226
-0.00398628
0.000716568
-0.0037284
0.000526743
-0.00366232
0.000345907
-0.00370382
0.00021619
-0.00379692
0.000139543
-0.00390078
0.000103864
-0.0039895
9.31224e-05
-0.0040496
8.96646e-05
-0.00408497
7.81969e-05
-0.00411046
4.89819e-05
-0.0041413
-4.50922e-06
-0.00418594
-8.72723e-05
-0.00424588
-0.00016606
-0.00432091
-0.000226439
-0.00440864
-0.000265172
-0.0045046
-0.000282109
-0.00460234
-0.00027792
-0.00469405
-0.000254285
-0.00477171
-0.000213702
-0.00482866
-0.000159419
-0.00486083
-9.59807e-05
-0.00486769
-3.00342e-05
-0.00484861
2.5779e-05
-0.00479846
6.13659e-05
-0.004718
8.81438e-05
-0.00460768
0.000112798
-0.00446516
0.000139619
-0.00428401
0.000171768
-0.00405448
0.000211354
-0.00376558
0.000251879
-0.0033843
0.000259171
-0.00271612
0.000170683
-0.00121091
5.00427e-05
0.000212005
0.00118912
0.0031562
0.00156753
-0.00507916
-0.00812173
-0.00818409
-0.00740257
-0.00663957
-0.00607312
-0.00569231
-0.00544426
-0.00527451
-0.00514103
-0.00501808
-0.00489787
-0.00478822
-0.00470702
-0.00467885
-0.00473336
-0.00486686
-0.00506121
-0.00529498
-0.00554656
-0.00579485
-0.00602033
-0.00620588
-0.0063376
-0.00640614
-0.00640884
-0.00635577
-0.00626718
-0.006152
-0.00601253
-0.00584683
-0.0056498
-0.0054142
-0.00513925
-0.00485829
-0.00466716
-0.00459807
-0.00339154
)
;

boundaryField
{
    floor
    {
        type            calculated;
        value           nonuniform List<scalar> 
36
(
0
0
0
0
0
0
0
0
0
0
0
0
0
0
0
0
0
0
0
-6.4387e-06
-1.68838e-05
-2.60322e-05
-3.43064e-05
-3.49341e-05
-2.88215e-05
-2.87061e-05
-2.9199e-06
-5.44113e-06
-5.68738e-06
-5.90762e-06
-4.85381e-06
-8.93821e-06
-1.0212e-05
-1.28329e-05
-1.44575e-05
-1.54453e-05
)
;
    }
    ceiling
    {
        type            calculated;
        value           nonuniform List<scalar> 
43
(
-5.79366e-05
-6.4782e-05
-6.31865e-05
-5.93506e-05
-5.41974e-05
-4.636e-05
-3.96536e-05
-3.48868e-05
-3.18771e-05
-3.02603e-05
-2.96991e-05
-2.99174e-05
-3.06344e-05
-3.15195e-05
-3.22579e-05
-3.26748e-05
-3.27037e-05
-3.24508e-05
-3.19472e-05
-3.12372e-05
-3.04042e-05
-2.95622e-05
-2.88225e-05
-2.82581e-05
-2.78886e-05
-2.7686e-05
-2.75917e-05
-2.75286e-05
-2.74108e-05
-2.71563e-05
-2.67081e-05
-2.60408e-05
-2.5156e-05
-2.4077e-05
-2.28456e-05
-2.15195e-05
-2.01567e-05
-1.87504e-05
-1.71983e-05
-1.5754e-05
1.93373e-05
1.51882e-05
-0.000246581
)
;
    }
    sWall
    {
        type            calculated;
        value           nonuniform List<scalar> 9(-0.000140236 -0.000164521 -0.000194252 -0.000225971 -0.000245165 -0.000281097 -0.00042377 -0.000453742 -0.000484019);
    }
    nWall
    {
        type            calculated;
        value           nonuniform List<scalar> 
14
(
-9.04384e-05
-9.76923e-05
-0.000103193
-0.000104611
-0.00011679
-0.000130855
-0.000144884
-0.000153337
-0.000161459
-0.000170714
-0.000182345
-0.000197324
-0.000205125
-0.000219397
)
;
    }
    sideWalls
    {
        type            empty;
        value           nonuniform 0();
    }
    glass1
    {
        type            calculated;
        value           nonuniform List<scalar> 9(-6.40346e-05 -0.000170322 -0.000257924 -0.000331207 -0.000393191 -0.000446397 -0.00049221 -0.000535492 -0.000587172);
    }
    glass2
    {
        type            calculated;
        value           nonuniform List<scalar> 2(-0.000367833 -0.000385832);
    }
    sun
    {
        type            calculated;
        value           uniform 0;
    }
    Table_master
    {
        type            calculated;
        value           nonuniform List<scalar> 9(-1.53994e-07 -1.54111e-07 -1.54143e-07 -1.54163e-07 -1.54176e-07 -1.54181e-07 -1.54179e-07 -1.54165e-07 -1.54112e-07);
    }
    Table_slave
    {
        type            calculated;
        value           nonuniform List<scalar> 9(1.53662e-07 1.53719e-07 1.53718e-07 1.53735e-07 1.53756e-07 1.538e-07 1.53867e-07 1.5396e-07 1.54088e-07);
    }
    inlet
    {
        type            calculated;
        value           uniform -0.0116482;
    }
    outlet
    {
        type            calculated;
        value           nonuniform List<scalar> 2(0.00986409 0.012281);
    }
}


// ************************************************************************* //
