/*--------------------------------*- C++ -*----------------------------------*\
  =========                 |
  \\      /  F ield         | OpenFOAM: The Open Source CFD Toolbox
   \\    /   O peration     | Website:  https://openfoam.org
    \\  /    A nd           | Version:  6
     \\/     M anipulation  |
\*---------------------------------------------------------------------------*/
FoamFile
{
    version     2.0;
    format      ascii;
    class       surfaceScalarField;
    location    "7700";
    object      phi;
}
// * * * * * * * * * * * * * * * * * * * * * * * * * * * * * * * * * * * * * //

dimensions      [1 0 -1 0 0 0 0];

internalField   nonuniform List<scalar> 
1256
(
-0.0030323
0.00309471
-0.00399637
0.000964062
-0.00477109
0.000774723
-0.00540639
0.000635301
-0.00588276
0.000476375
-0.00618154
0.000298776
-0.00627407
9.25307e-05
-0.00611644
-0.000157631
-0.00565182
-0.000464621
-0.00483963
-0.000812189
-0.00370236
-0.00113727
-0.00237858
-0.00132378
-0.001122
-0.00125658
-0.000206996
-0.000915006
-0.000204644
-0.000947454
0.000951376
-0.000704862
-0.000242593
-5.64858e-05
-0.000648376
0.0005538
-0.000610285
0.00101132
-0.000457515
0.00126684
-0.000255526
0.00137604
-0.000109194
0.00143046
-5.44276e-05
0.00146254
-3.20795e-05
0.00147922
-1.66735e-05
0.00148438
-5.16086e-06
0.00147918
5.19478e-06
0.00145799
2.11895e-05
0.00140184
5.61491e-05
0.00127856
0.000123279
0.00107765
0.000200917
0.000821937
0.00025571
0.000827179
-0.00211351
0.00537661
-0.00304006
0.00189061
-0.00382518
0.00155984
-0.00443684
0.00124696
-0.00489498
0.000934523
-0.00519434
0.00059813
-0.00530848
0.00020667
-0.00519522
-0.000270892
-0.00480437
-0.000855463
-0.00410163
-0.00151493
-0.00312095
-0.00211795
-0.00200959
-0.00243514
-0.000977253
-0.00228892
-0.000149181
-0.00174308
0.000625539
-0.000979363
0.00107525
-0.000445677
0.000960856
0.000119078
0.000974504
6.20466e-05
0.000901099
0.000452028
-0.000632574
0.000814166
-0.00101051
0.00112276
-0.000918884
0.00136694
-0.000701687
0.00142188
-0.00031047
0.00142993
-0.000117243
0.00144049
-6.49822e-05
0.0014494
-4.09943e-05
0.00145462
-2.18877e-05
0.00145704
-7.5816e-06
0.0014568
5.42759e-06
0.00145154
2.64528e-05
0.00141551
9.21832e-05
0.0012631
0.000275682
0.000995115
0.000468905
0.000661966
0.000588859
0.0015025
-0.00144252
0.00707551
-0.00219919
0.00264729
-0.00284804
0.00220869
-0.00333369
0.00173261
-0.00370973
0.00131056
-0.00397567
0.000864075
-0.00410079
0.000331789
-0.00403277
-0.000338914
-0.00371413
-0.0011741
-0.00311377
-0.0021153
-0.00227362
-0.0029581
-0.00135049
-0.00335826
-0.000527212
-0.00311219
0.00013013
-0.00240042
0.00064446
-0.00149369
0.000840471
-0.000641688
0.000684156
0.000275393
0.00167062
0.00149481
-0.000579128
0.00169466
-0.00083242
0.001626
-0.000941854
0.00164644
-0.000939325
0.00183288
-0.000888128
0.00152257
0.00140548
0.00134065
0.00129981
0.00127808
0.00127065
0.00127623
0.00130284
0.00139518
0.00116456
0.000506301
0.000873258
0.000760203
0.000506722
0.000955395
0.00202921
-0.00102119
0.00842612
-0.00155972
0.00318582
-0.00188872
0.00253769
-0.0021495
0.00199339
-0.00236697
0.00152803
-0.00254085
0.00103795
-0.00263869
0.000429623
-0.00259228
-0.000385323
-0.00232839
-0.00143799
-0.00183009
-0.0026136
-0.00115917
-0.00362901
-0.000468546
-0.00404889
0.000101309
-0.00368205
0.000553486
-0.00285259
0.000911875
-0.00185208
0.00113204
-0.000861854
0.00133235
7.50872e-05
0.00232755
0.000675421
0.00227794
6.22026e-05
0.00207719
-0.000378374
0.00197294
-0.00072817
0.00184432
-0.000813233
0.00169802
-0.000793026
0.00146198
-0.000652095
0.00176131
-0.000299477
0.00191886
-0.00015771
0.00203259
-0.000113879
0.00211931
-8.68755e-05
0.00216906
-4.99014e-05
0.00216031
8.59956e-06
0.00206553
9.46263e-05
0.00184812
0.000217252
0.0014486
0.000399368
0.00122215
0.00073275
0.000863764
0.00111859
0.000349406
0.00146975
0.00240407
-0.000850821
0.00966807
-0.00114666
0.00348166
-0.000976401
0.00236743
-0.000951482
0.00196847
-0.000967515
0.00154406
-0.00100899
0.00107943
-0.00102647
0.000447101
-0.000944859
-0.000466936
-0.000696827
-0.00168602
-0.000295707
-0.00301472
0.000152412
-0.00407713
0.000542519
-0.00443899
0.000802562
-0.00394209
0.00100294
-0.00305297
0.00116928
-0.00201842
0.00134236
-0.00103494
0.00164342
-0.000225973
0.00209356
0.000225284
0.00212028
3.54853e-05
0.00203579
-0.000293881
0.00183364
-0.000526018
0.00163194
-0.000611539
0.00144323
-0.000604317
0.0013038
-0.000512665
0.00134662
-0.000342295
0.00141877
-0.000229859
0.00148943
-0.000184533
0.00156019
-0.000157643
0.00162384
-0.000113551
0.00166086
-2.84167e-05
0.00164691
0.00010858
0.00156606
0.000298099
0.00142172
0.000543714
0.00127508
0.000879381
0.00110654
0.00128713
0.000753928
0.00182237
0.000985706
0.00217229
-0.0011559
0.00216425
-0.00185344
0.000718733
-0.00177708
-0.000994557
0.00405232
0.00705192
-9.05837e-05
0.00145615
0.00112153
0.000173771
0.00114686
0.000956208
0.000467129
0.000863116
0.000811998
0.000550309
0.000752801
0.000708075
0.000573194
0.000571636
0.000484909
0.000636002
0.000264483
0.000119809
0.000795326
-0.00020467
-0.00042159
0.00106109
-0.000851741
-0.00110004
0.00134643
-0.00154163
-0.00175843
0.00153224
-0.00207686
-0.00218608
0.00157139
-0.00226036
-0.00221779
0.00149045
-0.00386115
0.00135593
-0.00291845
0.00124401
-0.00190649
0.00120961
-0.00100054
0.0013076
-0.000323963
0.00150144
3.14402e-05
0.00153575
1.17651e-06
0.00142626
-0.000184389
0.00124249
-0.000342253
0.0010555
-0.000424541
0.000891535
-0.000440355
0.000779413
-0.000400542
0.000759571
-0.000322452
0.000798782
-0.000269069
0.000865572
-0.000251323
0.000949134
-0.000241204
0.00104407
-0.000208487
0.00114169
-0.000126038
0.00122014
3.01341e-05
0.00126547
0.000252765
0.00129141
0.000517781
0.00133842
0.000832363
0.00145741
0.00116814
0.00168319
0.0015966
0.00205594
0.00179954
0.00237415
0.00184604
0.00186407
0.00122881
0.000154861
-0.00318181
0.000490081
0.00315925
-0.0046181
0.00320742
0.00286684
-0.00236834
0.00206849
0.00144672
-0.00180654
0.00158233
0.00108732
-0.00139595
0.00124829
0.000900463
-0.00116056
0.00108293
0.000649262
-0.00107306
0.00105431
0.00028323
-0.00112431
0.00116119
-0.000241545
-0.00128232
0.00132085
-0.000890269
-0.00143619
0.00144713
-0.00155256
-0.00150562
0.00146702
-0.00203826
-0.00143121
0.00134744
-0.00217658
0.00195735
-0.00322266
-0.00123816
-0.00135768
0.00141517
-0.00237627
0.000992316
-0.00148364
0.000726526
-0.000734744
0.000636614
-0.00023405
0.000668746
-6.91286e-07
0.000669047
8.76438e-07
0.000589455
-0.000104796
0.000460061
-0.000212859
0.000318284
-0.000282763
0.000190783
-0.000312854
0.00010243
-0.000312189
7.61244e-05
-0.000296146
0.000100645
-0.000293589
0.000155632
-0.00030631
0.000232253
-0.000317825
0.000332187
-0.000308421
0.000461723
-0.000255573
0.0006212
-0.000129343
0.000789968
8.39971e-05
0.000965491
0.000342258
0.00118338
0.000614474
0.00148081
0.000870715
0.00191365
0.00116376
0.00247459
0.0012386
0.00326205
0.00105858
0.00346457
0.00102629
0.00369102
0.00198074
-0.00154261
-0.00378567
0.00414755
-0.00285987
0.002498
-0.00457737
0.00464018
-0.00177867
0.00171586
-0.00447708
0.00417842
-0.00144892
0.00174758
-0.00384078
0.00352293
-0.00118699
0.00150484
-0.00324697
0.00301852
-0.000821262
0.00104971
-0.00284416
0.00271702
-0.000352288
0.000479424
-0.00262873
0.00256806
0.000249783
-0.00018911
-0.00252682
0.00248708
0.000918838
-0.000879094
-0.00243509
0.00235333
0.00154343
-0.00146167
-0.00223511
0.00207428
0.00195419
-0.00179337
-0.00187603
0.00164566
0.0020189
-0.00178852
0.00173795
-0.00223653
-0.00139361
-0.00133047
0.000916171
-0.00155449
0.00029347
-0.000860934
-7.05555e-05
-0.000370718
-0.000209437
-9.51682e-05
-0.000223656
1.35288e-05
-0.000230622
7.84267e-06
-0.000280819
-5.45993e-05
-0.000368685
-0.000124992
-0.000471465
-0.000179982
-0.00056746
-0.000216859
-0.000638976
-0.000240671
-0.000675042
-0.00026008
-0.000683412
-0.000285219
-0.000675603
-0.000314118
-0.000655845
-0.000337582
-0.000619219
-0.000345047
-0.000549839
-0.000324953
-0.000416568
-0.000262613
-0.000199285
-0.000133285
6.84029e-05
7.45708e-05
0.000371077
0.0003118
0.000712919
0.000528874
0.00113295
0.000743724
0.00158188
0.000789668
0.00192342
0.000717038
0.00102005
0.00192966
0.00501235
-0.0016657
0.00270041
0.00490613
-0.00474016
0.00458415
-0.0019529
0.00210891
-0.00446941
0.00431058
-0.00177883
0.00193766
-0.00413511
0.00396578
-0.00128053
0.00144986
-0.00381113
0.00367183
-0.000635349
0.000774651
-0.00354299
0.00340978
7.35712e-05
5.964e-05
-0.00325909
0.00308212
0.000761603
-0.000584627
-0.00287167
0.00262455
0.00129156
-0.00104445
-0.00234354
0.00203637
0.00155022
-0.00124306
-0.00171351
0.00138227
0.00150308
-0.00117185
0.000690912
-0.00114785
-0.00103354
-0.000746047
-0.000168098
-0.000695477
-0.00070688
-0.000322152
-0.000953902
-0.000123694
-0.00103621
-1.28613e-05
-0.00105159
2.89069e-05
-0.00106374
1.9995e-05
-0.00110297
-1.53646e-05
-0.00116976
-5.81989e-05
-0.00125157
-9.81748e-05
-0.00133555
-0.000132883
-0.00141338
-0.000162841
-0.00148343
-0.000190029
-0.0015532
-0.000215444
-0.00163237
-0.000234955
-0.00172959
-0.00024036
-0.00185394
-0.000220695
-0.00201667
-0.000162224
-0.00223201
-4.7269e-05
-0.00249819
0.000132895
-0.00281607
0.00039245
-0.00325448
0.000750209
-0.00393431
0.00120871
-0.00493227
0.00174168
-0.00637922
0.00223662
-0.00814974
0.00248756
-0.00793386
0.00171378
-0.00258959
-0.00034126
0.00040769
3.28921e-05
-0.00326455
0.003
-0.0023936
0.00265815
-0.00286441
0.00283484
-0.00204958
0.00207915
-0.00283478
0.00282854
-0.00154289
0.00154914
-0.0028029
0.00275187
-0.000874348
0.000925383
-0.00267163
0.00256044
-0.000187547
0.000298744
-0.00240937
0.00221232
0.000379497
-0.000182442
-0.00197288
0.00169972
0.000758216
-0.000485057
-0.00140359
0.00109572
0.000913228
-0.000605361
-0.000787809
0.000483959
0.000851343
-0.000547493
-0.000851682
-0.000395529
-0.000153062
0.000252419
-0.00136032
-0.000186838
-0.00161526
-6.72147e-05
-0.00173119
-7.76367e-06
-0.00176747
2.34236e-05
-0.00177366
3.50915e-05
-0.00178435
3.06886e-05
-0.00181548
1.57699e-05
-0.00186924
-4.44741e-06
-0.00193802
-2.93905e-05
-0.00201598
-5.49187e-05
-0.00210113
-7.76973e-05
-0.00219524
-9.59185e-05
-0.00230248
-0.000108198
-0.00242556
-0.000111879
-0.00256358
-0.000102339
-0.00271111
-7.31668e-05
-0.00285515
-1.81825e-05
-0.00298099
7.85695e-05
-0.00308639
0.000238303
-0.00317727
0.000483324
-0.00325993
0.00083287
-0.00333717
0.00128594
-0.00337468
0.00177919
-0.00326097
0.00212291
-0.00247429
0.00170087
-0.000476443
-0.000284066
-0.0029804
0.00419182
-0.00362728
-0.000367853
-0.000232049
-0.00172672
-0.00389047
0.0034819
-0.00296384
-0.000859319
0.00180983
-0.00108912
-0.00227288
0.00155218
0.000588715
-0.000225125
-0.00191032
0.00154674
-5.67807e-05
0.000274954
-0.00144957
0.0012314
-0.000432893
0.000534175
-0.000912978
0.000811697
-0.000580652
0.000574787
-0.000374346
0.000380211
-0.000521583
0.000427695
3.48999e-05
5.89865e-05
-0.000295402
0.000125473
0.000261967
-9.20394e-05
7.0973e-05
-0.000275091
0.000346967
-0.000142849
0.000465125
-0.000623174
0.000318516
-0.000160467
-0.00205906
-3.04194e-05
0.000767818
0.000926136
-0.00226279
1.68913e-05
-0.00235536
2.53479e-05
-0.00238765
2.45276e-05
-0.00238703
2.2809e-05
-0.0023735
2.15629e-05
-0.00236067
1.78516e-05
-0.00235602
1.11262e-05
-0.00236231
1.83553e-06
-0.002379
-1.26933e-05
-0.00240676
-2.71649e-05
-0.00244516
-3.92952e-05
-0.00249356
-4.75214e-05
-0.00255095
-5.08088e-05
-0.00261501
-4.78132e-05
-0.00268107
-3.62742e-05
-0.00274191
-1.23346e-05
-0.00278694
2.68482e-05
-0.0027945
8.61332e-05
-0.00273954
0.00018334
-0.00259
0.000333781
-0.00231323
0.000556109
-0.0018936
0.000866304
-0.001313
0.0011986
-0.00030665
0.00111656
0.00166863
-0.000274402
0.00349222
-0.00210766
0.000604488
0.00223898
-0.00193814
0.00250014
-0.0037331
0.00246504
-0.00123208
0.00457097
-0.0048685
0.000647321
-0.000349798
0.004632
-0.00413037
-0.000872726
0.000371097
0.00357781
-0.00304453
-0.00106318
0.000529892
0.00255558
-0.00212588
-0.000891269
0.000461563
0.00176536
-0.00148149
-0.000605454
0.000321581
0.00127649
-0.00114694
-0.000311492
0.000181945
0.00108358
-0.00107201
-0.000103275
9.17037e-05
0.00109488
-0.0011351
-1.72673e-05
5.74803e-05
0.0011796
-0.00122162
1.28298e-05
2.91892e-05
0.00126572
-0.0013056
0.00010037
-6.04943e-05
-0.00283846
0.00123162
0.00158778
-0.0028103
-0.00277371
-0.00273791
-0.00270379
-0.00267081
-0.00264142
-0.0026186
-0.00260495
-0.00260575
-0.00262101
-0.00264843
-0.00268418
-0.00272335
-0.00275972
-0.00278477
-0.00278616
-0.00274867
-0.00265225
-0.002459
-0.00211572
-0.00155053
-0.000675614
0.000531094
0.00165536
0.00138903
-0.000711372
-0.00431599
0.00375021
0.00196061
0.00121816
0.000998379
0.0007958
0.000494783
4.98067e-05
-0.000542725
-0.00121539
-0.00181692
-0.00215027
-0.0021085
-0.00288792
-0.00251371
0.00161596
-0.00226322
0.00183339
-0.00156336
0.00172646
-0.0013345
0.00167213
-0.00101696
0.00129292
-0.000604216
0.000778572
-6.71729e-05
0.000155463
0.000579951
-0.000538717
0.00124466
-0.00119267
0.0017847
-0.00166648
0.00203233
-0.00183407
0.00191423
-0.00166218
-0.00529587
-0.0016029
0.00215861
-0.00193974
0.00205448
-0.00155343
0.00172889
-0.000970913
0.00112557
-0.000285201
0.00041404
0.000428516
-0.000277823
0.00105468
-0.000844224
0.00145921
-0.00117819
0.00156312
-0.00124025
0.00138581
-0.00103709
-0.00324036
-0.00267326
0.00264908
-0.00221579
0.00235138
-0.00182513
0.0018252
-0.00122034
0.00124599
-0.000523065
0.000603313
0.000116374
3.46932e-05
0.000595454
-0.000356015
0.000864393
-0.000568259
0.00090697
-0.000599063
0.000769199
-0.000438303
-0.00145255
-0.00386015
-0.00268073
-0.00205776
0.000903749
-0.00213363
0.00163323
-0.00168923
0.00140733
-0.00118869
0.00103075
-0.000636096
0.000589618
-0.000145604
0.000198807
0.000167486
-3.51942e-05
0.000321121
-0.000124676
0.000345849
-0.000155815
0.000250758
-0.000106114
0.00116912
0.00275048
-0.00141945
0.0016739
-0.000836029
-0.000323244
8.67452e-05
-0.0010513
0.000498737
-0.000999167
0.000510221
-0.000756273
0.000395756
-0.000452858
0.000247854
-0.000192373
0.000129014
-4.66328e-05
6.95055e-05
-2.19608e-06
4.67041e-05
4.06653e-05
3.43359e-06
0.000202952
-0.000276927
-0.00439574
0.00440271
-0.0041001
0.00376815
-0.00342294
0.00306134
-0.00272523
0.0024387
-0.00221754
0.00204554
-0.0019361
0.00186705
-0.00184968
0.00185792
-0.00189514
0.00192371
-0.00195299
0.00194385
-0.00191164
0.00182758
-0.00170964
0.00155195
-5.66037e-05
0.00254372
0.00122606
-0.00436787
0.00485766
-0.00498122
0.00477591
-0.0045083
0.00423431
-0.00397381
0.00374298
-0.00355064
0.00339472
-0.00326498
0.00314944
-0.00303924
0.00292175
-0.00278376
0.00261366
-0.00240638
0.00216324
-0.00189228
0.00160684
-0.00439148
0.00410679
-0.00394548
0.00383357
-0.00373734
0.00364431
-0.00354954
0.00344984
-0.00334082
0.00321292
-0.00305147
0.00284634
-0.00259758
0.00231135
-0.00199754
0.00166771
-0.00133444
0.00101393
-0.000624209
0.00100948
-0.00122723
0.00139606
-0.00153203
0.0016316
-0.0016889
0.00170131
-0.00166853
0.00159293
-0.00148201
0.00133447
-0.00114594
0.00092285
-0.000675712
0.000417317
-0.000164103
-6.48743e-05
0.00147753
-0.00290296
0.00390979
-0.00412178
0.00354128
-0.00286183
0.0022799
-0.00179634
0.00138818
-0.00104804
0.000773565
-0.000567323
0.000430564
-0.000361847
0.000355413
-0.000399702
0.00048153
-0.000590836
0.000717708
-0.000847728
0.000962877
-0.00102297
0.00331894
-0.00451373
0.00531402
-0.00562934
0.00550927
-0.00510625
0.00457759
-0.00401998
0.00348427
-0.0029994
0.00258243
-0.00224166
0.00197655
-0.00177913
0.0016362
-0.00153184
0.00145064
-0.00138211
0.0013247
-0.00128493
0.00127094
-0.00132101
)
;

boundaryField
{
    floor
    {
        type            calculated;
        value           nonuniform List<scalar> 
36
(
0
0
0
0
0
0
0
0
0
0
0
0
0
0
0
0
0
0
0
-5.24222e-06
-1.33553e-05
-1.99857e-05
-2.54571e-05
-2.2642e-05
-2.11941e-05
-1.99651e-05
-2.3527e-06
-4.03717e-06
-4.67913e-06
-5.42826e-06
-3.92205e-06
-8.21928e-06
-1.17702e-05
-1.1964e-05
-1.45854e-05
-1.25877e-05
)
;
    }
    ceiling
    {
        type            calculated;
        value           nonuniform List<scalar> 
58
(
-3.86501e-05
-3.57377e-05
-3.33225e-05
-2.9929e-05
-2.54849e-05
-2.12145e-05
-1.72557e-05
-1.39177e-05
-1.16969e-05
-1.07026e-05
-1.05558e-05
-1.01565e-05
-1.13574e-05
-1.12689e-05
-1.12474e-05
-1.12662e-05
-1.13188e-05
-1.14114e-05
-1.15419e-05
-1.16883e-05
-1.1816e-05
-1.1892e-05
-1.19099e-05
-1.187e-05
-1.17764e-05
-1.16339e-05
-1.14468e-05
-1.12183e-05
-1.09495e-05
-1.06379e-05
-1.02893e-05
-9.90984e-06
-9.50292e-06
-9.07132e-06
-8.61669e-06
-8.10973e-06
-7.70426e-06
-8.07578e-06
-7.25504e-06
-4.77628e-06
1.67485e-05
9.245e-06
-0.000132262
-3.83296e-05
-3.72978e-05
-3.44815e-05
-3.19211e-05
-2.77161e-05
-2.33116e-05
-1.91878e-05
-1.5474e-05
-1.26497e-05
-1.10544e-05
-1.05847e-05
-1.0424e-05
2.64573e-05
1.08799e-05
-9.93225e-05
)
;
    }
    sWall
    {
        type            calculated;
        value           nonuniform List<scalar> 4(-0.000185774 -0.000219179 -0.000196679 -0.000262515);
    }
    nWall
    {
        type            calculated;
        value           nonuniform List<scalar> 6(-5.63876e-05 -6.78744e-05 -7.15943e-05 -8.56364e-05 -9.26613e-05 -0.000102107);
    }
    sideWalls
    {
        type            empty;
        value           nonuniform 0();
    }
    glass1
    {
        type            calculated;
        value           nonuniform List<scalar> 10(-6.2408e-05 -0.000168388 -0.000256382 -0.000329426 -0.000391129 -0.000441614 -0.00044588 -0.000417107 -0.000467516 -0.000464587);
    }
    glass2
    {
        type            calculated;
        value           nonuniform List<scalar> 2(-0.000301266 -0.000331921);
    }
    sun
    {
        type            calculated;
        value           uniform 0;
    }
    Table_master
    {
        type            calculated;
        value           nonuniform List<scalar> 9(-1.53889e-07 -1.54039e-07 -1.5409e-07 -1.5412e-07 -1.54141e-07 -1.54154e-07 -1.54159e-07 -1.54153e-07 -1.54124e-07);
    }
    Table_slave
    {
        type            calculated;
        value           nonuniform List<scalar> 9(1.53775e-07 1.5377e-07 1.53728e-07 1.53695e-07 1.53675e-07 1.53675e-07 1.53681e-07 1.5372e-07 1.53802e-07);
    }
    inlet
    {
        type            calculated;
        value           nonuniform List<scalar> 2(-0.0057355 -0.00594084);
    }
    outlet
    {
        type            calculated;
        value           nonuniform List<scalar> 4(0.00508066 0.0044359 0.00292504 0.00584924);
    }
}


// ************************************************************************* //
