/*--------------------------------*- C++ -*----------------------------------*\
  =========                 |
  \\      /  F ield         | OpenFOAM: The Open Source CFD Toolbox
   \\    /   O peration     | Website:  https://openfoam.org
    \\  /    A nd           | Version:  6
     \\/     M anipulation  |
\*---------------------------------------------------------------------------*/
FoamFile
{
    version     2.0;
    format      ascii;
    class       volVectorField;
    location    "7700";
    object      U;
}
// * * * * * * * * * * * * * * * * * * * * * * * * * * * * * * * * * * * * * //

dimensions      [0 1 -1 0 0 0 0];

internalField   nonuniform List<vector> 
662
(
(0.0412989 0.0865618 0)
(-0.168975 0.0229392 0)
(-0.190049 0.0168672 0)
(-0.220554 0.0120388 0)
(-0.244508 0.00686075 0)
(-0.261536 0.00137556 0)
(-0.270493 -0.00470633 0)
(-0.269076 -0.0117723 0)
(-0.254888 -0.0203969 0)
(-0.226044 -0.0302901 0)
(-0.182864 -0.0397397 0)
(-0.129946 -0.0454621 0)
(-0.0756573 -0.0436002 0)
(-0.0295577 -0.0319523 0)
(-0.0163636 -0.00304168 0)
(-0.0100191 0.0107703 0)
(-0.038071 -0.0181591 0)
(-0.0146642 -0.0299578 0)
(0.0140168 -0.0254543 0)
(0.0337718 -0.0178888 0)
(0.0483945 -0.00958096 0)
(0.0571596 -0.0052308 0)
(0.0610784 -0.00368228 0)
(0.0625854 -0.00312005 0)
(0.0633124 -0.00278054 0)
(0.063693 -0.00251615 0)
(0.0637034 -0.0022498 0)
(0.0631866 -0.00181354 0)
(0.0616897 -0.00086954 0)
(0.0581956 0.00102041 0)
(0.0515913 0.0030906 0)
(0.0465474 0.00501555 0)
(-0.0150592 0.0226663 0)
(0.233484 0.178425 0)
(-0.1592 0.0617932 0)
(-0.148221 0.0510066 0)
(-0.179326 0.04178 0)
(-0.202274 0.0318978 0)
(-0.218933 0.0209485 0)
(-0.228438 0.00798047 0)
(-0.228595 -0.00809279 0)
(-0.217057 -0.0278414 0)
(-0.192365 -0.0500598 0)
(-0.154855 -0.0706158 0)
(-0.10926 -0.0821863 0)
(-0.0634398 -0.0782731 0)
(-0.0234566 -0.0594527 0)
(0.00948484 -0.0292722 0)
(0.0369089 -0.000715077 0)
(0.0527879 0.032477 0)
(-0.0149344 0.0722274 0)
(0.0699823 0.0449897 0)
(0.0117023 -0.0220155 0)
(0.0275587 -0.038462 0)
(0.0417654 -0.0358203 0)
(0.0539223 -0.0271117 0)
(0.0601638 -0.0120405 0)
(0.0617454 -0.00286046 0)
(0.0618013 0.000587372 0)
(0.0619695 0.00184774 0)
(0.0622929 0.00254695 0)
(0.0625184 0.00304131 0)
(0.0625866 0.00349494 0)
(0.0624914 0.00422431 0)
(0.0617923 0.00601854 0)
(0.0584141 0.01103 0)
(0.049734 0.015366 0)
(0.0490729 0.0186051 0)
(-0.0615178 0.0490617 0)
(0.410849 0.266226 0)
(-0.183384 0.0979393 0)
(-0.104042 0.0810148 0)
(-0.133983 0.0639933 0)
(-0.152642 0.0476779 0)
(-0.166983 0.0301261 0)
(-0.1763 0.00953879 0)
(-0.177965 -0.0155118 0)
(-0.168713 -0.0459121 0)
(-0.147441 -0.0799806 0)
(-0.114781 -0.110735 0)
(-0.0762672 -0.126165 0)
(-0.0396247 -0.117847 0)
(-0.0081411 -0.0906032 0)
(0.0172913 -0.0541264 0)
(0.0340842 -0.0236037 0)
(0.0410621 0.00924299 0)
(-0.0269127 0.0625483 0)
(0.126395 -0.00928099 0)
(0.0752174 -0.0333863 0)
(0.0665274 -0.0425446 0)
(0.0690232 -0.0416616 0)
(0.0731167 -0.037378 0)
(0.0743363 -0.027798 0)
(0.0652112 -0.0180598 0)
(0.058304 -0.0128366 0)
(0.0556669 -0.00993171 0)
(0.0548964 -0.00806129 0)
(0.0545839 -0.00679407 0)
(0.0545696 -0.00583223 0)
(0.0552779 -0.00471944 0)
(0.0576275 -0.00142013 0)
(0.0563633 0.0148051 0)
(0.044619 0.025669 0)
(0.0558062 0.0330062 0)
(-0.104673 0.0747771 0)
(0.565682 0.336595 0)
(-0.228359 0.129724 0)
(-0.0582031 0.104496 0)
(-0.0869151 0.0813044 0)
(-0.0979099 0.0615373 0)
(-0.106931 0.0405741 0)
(-0.114066 0.0149607 0)
(-0.116014 -0.0177982 0)
(-0.107856 -0.0585411 0)
(-0.0891491 -0.104384 0)
(-0.0619408 -0.144851 0)
(-0.0325562 -0.162874 0)
(-0.00738456 -0.149419 0)
(0.0141314 -0.114783 0)
(0.0309506 -0.0734731 0)
(0.0444977 -0.0327647 0)
(0.0605565 0.00782794 0)
(0.0605277 0.0514997 0)
(0.104059 0.0601549 0)
(0.103147 -0.00388746 0)
(0.0883926 -0.0300292 0)
(0.0806942 -0.0375124 0)
(0.0751554 -0.0376077 0)
(0.0681945 -0.032865 0)
(0.0672294 -0.0198158 0)
(0.0769496 -0.0130495 0)
(0.0850534 -0.00948146 0)
(0.0897526 -0.00732491 0)
(0.0924646 -0.00553851 0)
(0.093489 -0.00359289 0)
(0.0915488 -0.00104491 0)
(0.0852974 0.00250731 0)
(0.0728119 0.0076374 0)
(0.0574928 0.0249936 0)
(0.0419373 0.0404293 0)
(0.064332 0.0530118 0)
(-0.141693 0.0960024 0)
(0.686123 0.393909 0)
(-0.279766 0.146625 0)
(-0.0159291 0.115038 0)
(-0.0397046 0.089013 0)
(-0.0418767 0.068324 0)
(-0.0438899 0.0467632 0)
(-0.0469755 0.0194036 0)
(-0.0462933 -0.0182426 0)
(-0.036743 -0.0681561 0)
(-0.0194669 -0.123815 0)
(0.000782513 -0.170423 0)
(0.0182533 -0.18695 0)
(0.029212 -0.167517 0)
(0.0379231 -0.130216 0)
(0.0453026 -0.0860797 0)
(0.0526058 -0.0431212 0)
(0.0641138 -0.00547894 0)
(0.0786074 0.0161473 0)
(0.0928303 -0.00268842 0)
(0.0916874 -0.0222255 0)
(0.0838563 -0.0299014 0)
(0.0743389 -0.0316557 0)
(0.0655547 -0.0302565 0)
(0.0581821 -0.0250374 0)
(0.0558252 -0.014057 0)
(0.058688 -0.00777272 0)
(0.0623691 -0.00530926 0)
(0.0655442 -0.0039787 0)
(0.0683955 -0.00214718 0)
(0.0707298 0.00109845 0)
(0.0715647 0.00600663 0)
(0.0698462 0.0127781 0)
(0.0652124 0.0219817 0)
(0.0585747 0.0365437 0)
(0.0474333 0.0530126 0)
(0.0756835 0.0724879 0)
(-0.0118232 0.102355 0)
(0.0550431 0.155786 0)
(-0.0867702 0.0791571 0)
(-0.281941 0.00209252 0)
(0.744734 0.451573 0)
(-0.296731 0.0456956 0)
(0.0384131 0.0751905 0)
(0.017729 0.0712584 0)
(0.0206444 0.0624369 0)
(0.0223709 0.0451274 0)
(0.0220158 0.0178083 0)
(0.0276655 -0.0240995 0)
(0.0399009 -0.0802801 0)
(0.0548954 -0.139077 0)
(0.0660116 -0.183002 0)
(0.0698848 -0.196042 0)
(0.0658266 -0.171533 0)
(0.0596332 -0.131984 0)
(0.0538407 -0.0877404 0)
(0.0507729 -0.0466972 0)
(0.0529263 -0.0143224 0)
(0.0609936 0.00239817 0)
(0.0664778 -0.00192546 0)
(0.0646721 -0.0109491 0)
(0.0578403 -0.0180316 0)
(0.04932 -0.021554 0)
(0.0414002 -0.0219045 0)
(0.0351539 -0.0191693 0)
(0.0322571 -0.0138079 0)
(0.0329847 -0.0104779 0)
(0.0355067 -0.00927217 0)
(0.0387942 -0.00849831 0)
(0.0426018 -0.00677151 0)
(0.046687 -0.00299137 0)
(0.0510195 0.0036188 0)
(0.0538494 0.0127319 0)
(0.0554349 0.0241323 0)
(0.0571 0.0384623 0)
(0.0564892 0.0547651 0)
(0.080149 0.0760503 0)
(0.06486 0.0888017 0)
(0.100916 0.0978108 0)
(0.119626 0.0571702 0)
(-0.139345 -0.0318315 0)
(0.812077 0.231662 0)
(0.249587 0.234319 0)
(0.20427 0.101161 0)
(0.144997 0.077911 0)
(0.113205 0.0666983 0)
(0.0961912 0.0500949 0)
(0.0910893 0.0226817 0)
(0.098082 -0.0186789 0)
(0.112146 -0.0733271 0)
(0.124674 -0.131618 0)
(0.12863 -0.176627 0)
(0.119996 -0.191993 0)
(0.0946845 -0.155506 0)
(0.0704276 -0.117045 0)
(0.0493116 -0.0756381 0)
(0.0346999 -0.0391749 0)
(0.0278973 -0.0130084 0)
(0.0281358 -0.000200491 0)
(0.0293352 -0.000553368 0)
(0.0276594 -0.00613778 0)
(0.0228915 -0.0115985 0)
(0.0167035 -0.0148268 0)
(0.0106266 -0.0158158 0)
(0.00575183 -0.0149404 0)
(0.00327364 -0.0129547 0)
(0.00344355 -0.0119544 0)
(0.00528275 -0.012055 0)
(0.00809438 -0.0122098 0)
(0.0117527 -0.0113504 0)
(0.0163808 -0.00838097 0)
(0.0225676 -0.00201074 0)
(0.0306225 0.00801644 0)
(0.0379422 0.0196073 0)
(0.0463992 0.032441 0)
(0.0550509 0.0458632 0)
(0.0762272 0.0626339 0)
(0.0899361 0.068321 0)
(0.122488 0.0624786 0)
(0.167233 0.0501062 0)
(-0.0185543 0.0947431 0)
(0.589058 0.00156433 0)
(0.289844 0.197063 0)
(0.406477 0.147958 0)
(0.376458 0.138146 0)
(0.316772 0.115817 0)
(0.268639 0.0796796 0)
(0.238281 0.0346363 0)
(0.223057 -0.0201481 0)
(0.215933 -0.0787519 0)
(0.206644 -0.130594 0)
(0.185856 -0.162221 0)
(0.151543 -0.164426 0)
(0.092089 -0.119411 0)
(0.0547941 -0.0860707 0)
(0.0231475 -0.0510888 0)
(0.0021038 -0.0227993 0)
(-0.00756337 -0.00587909 0)
(-0.00954777 0.000805849 0)
(-0.00937406 0.000418126 0)
(-0.0105068 -0.00322337 0)
(-0.013695 -0.00696844 0)
(-0.0180469 -0.00952719 0)
(-0.0225235 -0.0108972 0)
(-0.0262472 -0.0114578 0)
(-0.0285254 -0.0117788 0)
(-0.0293556 -0.0125713 0)
(-0.0292984 -0.0137668 0)
(-0.0287324 -0.01486 0)
(-0.0276505 -0.0152995 0)
(-0.0257262 -0.0144964 0)
(-0.0221868 -0.0117099 0)
(-0.0146505 -0.00608154 0)
(-0.00192301 0.00251054 0)
(0.0100036 0.0116457 0)
(0.0223195 0.0183625 0)
(0.0409482 0.025382 0)
(0.0579619 0.0216972 0)
(0.0821575 0.00968085 0)
(0.149328 0.0566127 0)
(-0.46158 0.214024 0)
(0.404825 0.137134 0)
(0.407999 0.163237 0)
(0.375845 0.159303 0)
(0.347306 0.119022 0)
(0.321025 0.0621716 0)
(0.299169 0.000431545 0)
(0.272801 -0.0576043 0)
(0.236369 -0.100662 0)
(0.188 -0.120257 0)
(0.132589 -0.114974 0)
(0.051033 -0.0732694 0)
(0.00855415 -0.0472718 0)
(-0.0229981 -0.022486 0)
(-0.0376233 -0.0088618 0)
(-0.0436097 -0.00177664 0)
(-0.0450143 0.000932646 0)
(-0.0451953 0.00054373 0)
(-0.0461919 -0.00142199 0)
(-0.0486011 -0.00370647 0)
(-0.0519596 -0.00571473 0)
(-0.0556466 -0.00736604 0)
(-0.0591638 -0.00878174 0)
(-0.0622812 -0.0101301 0)
(-0.0651873 -0.011528 0)
(-0.0683119 -0.0127994 0)
(-0.0720456 -0.0135756 0)
(-0.0767315 -0.0133789 0)
(-0.0827938 -0.0115992 0)
(-0.0908542 -0.00743896 0)
(-0.101579 -5.46977e-05 0)
(-0.113544 0.0107009 0)
(-0.127899 0.0244671 0)
(-0.151392 0.0411699 0)
(-0.186449 0.0598998 0)
(-0.235507 0.0770695 0)
(-0.292294 0.0899313 0)
(-0.373658 0.0968367 0)
(-0.65953 0.0924825 0)
(0.172065 -0.115732 0)
(0.249919 0.221009 0)
(0.239234 0.179039 0)
(0.240824 0.13441 0)
(0.237225 0.078751 0)
(0.223627 0.0219229 0)
(0.198309 -0.0235648 0)
(0.157517 -0.0526865 0)
(0.107079 -0.0644002 0)
(0.0541118 -0.0593315 0)
(-0.0231468 -0.0291181 0)
(-0.0505701 -0.0170186 0)
(-0.065824 -0.00945036 0)
(-0.0728782 -0.00573905 0)
(-0.0756303 -0.00392511 0)
(-0.0760705 -0.00370033 0)
(-0.0762445 -0.00475943 0)
(-0.0771184 -0.00655987 0)
(-0.0789581 -0.0085278 0)
(-0.0816966 -0.0102649 0)
(-0.0849114 -0.0117138 0)
(-0.088415 -0.0128109 0)
(-0.0922238 -0.0135574 0)
(-0.0965141 -0.0139435 0)
(-0.10147 -0.0138159 0)
(-0.107146 -0.0128514 0)
(-0.113406 -0.0105796 0)
(-0.119868 -0.00643808 0)
(-0.125912 0.000188014 0)
(-0.130686 0.00941048 0)
(-0.134391 0.02198 0)
(-0.137316 0.0386272 0)
(-0.140548 0.0589781 0)
(-0.14437 0.080454 0)
(-0.144433 0.0956084 0)
(-0.124905 0.0899998 0)
(-0.069356 0.0346972 0)
(-0.206398 -0.181482 0)
(0.401243 -0.328074 0)
(-0.0879057 -0.488729 0)
(-0.287849 -0.0202284 0)
(-0.121329 0.16758 0)
(-0.0338291 0.149018 0)
(0.0150628 0.114586 0)
(0.0417689 0.0733489 0)
(0.0498237 0.0319242 0)
(0.0407969 0.00105773 0)
(0.0188052 -0.0149471 0)
(-0.0151029 -0.0204124 0)
(-0.047513 -0.018366 0)
(-0.0805081 0.0166529 0)
(-0.0941088 0.0240044 0)
(-0.100089 0.0271508 0)
(-0.102374 0.0293037 0)
(-0.10275 0.0313486 0)
(-0.102262 0.033559 0)
(-0.101627 0.0358548 0)
(-0.10126 0.0379478 0)
(-0.101321 0.0393623 0)
(-0.10182 0.0395152 0)
(-0.102778 0.0388145 0)
(-0.104197 0.0375099 0)
(-0.106068 0.035804 0)
(-0.108365 0.0338523 0)
(-0.111023 0.0317766 0)
(-0.11391 0.0296796 0)
(-0.116809 0.0276399 0)
(-0.119331 0.0256516 0)
(-0.120704 0.0245676 0)
(-0.119759 0.0260288 0)
(-0.114967 0.031253 0)
(-0.104933 0.0412294 0)
(-0.0895471 0.0561325 0)
(-0.0701449 0.0731802 0)
(-0.0464502 0.0832426 0)
(0.0199214 0.050971 0)
(0.150802 -0.0556235 0)
(-0.0520396 -0.0615987 0)
(0.290036 -0.234678 0)
(-0.274528 -0.136661 0)
(-0.40971 -0.0191802 0)
(-0.370765 0.0696884 0)
(-0.280244 0.0848059 0)
(-0.198317 0.0737125 0)
(-0.13747 0.0543879 0)
(-0.102626 0.035197 0)
(-0.0918434 0.0229119 0)
(-0.0955271 0.0195505 0)
(-0.103313 0.0177377 0)
(-0.109278 -0.00118349 0)
(-0.122087 -0.0808539 0)
(-0.121204 -0.0837566 0)
(-0.120074 -0.0861456 0)
(-0.118512 -0.0894507 0)
(-0.116976 -0.0932636 0)
(-0.115493 -0.0976829 0)
(-0.114118 -0.102616 0)
(-0.112957 -0.107452 0)
(-0.11215 -0.111313 0)
(-0.111874 -0.113411 0)
(-0.112246 -0.113845 0)
(-0.113205 -0.112751 0)
(-0.114619 -0.110286 0)
(-0.116306 -0.106595 0)
(-0.118029 -0.101739 0)
(-0.11947 -0.0956627 0)
(-0.120213 -0.088157 0)
(-0.119746 -0.0788279 0)
(-0.117276 -0.0681065 0)
(-0.111168 -0.056314 0)
(-0.0988325 -0.0432725 0)
(-0.0776986 -0.0284224 0)
(-0.0473846 -0.0111259 0)
(-0.00741377 0.00868431 0)
(0.0371194 0.00796013 0)
(0.106085 -0.0509472 0)
(0.123965 -0.0955114 0)
(-0.521984 0.00490699 0)
(0.474157 0.386006 0)
(0.195869 0.133401 0)
(0.173679 0.0869789 0)
(0.12579 0.0721973 0)
(0.102183 0.0605403 0)
(0.0913709 0.0390323 0)
(0.0919587 0.00416663 0)
(0.104984 -0.0445509 0)
(0.11904 -0.102569 0)
(0.127924 -0.156552 0)
(0.12551 -0.188484 0)
(0.111415 -0.186891 0)
(0.286505 0.0904592 0)
(0.37029 0.172557 0)
(0.400822 0.140537 0)
(0.34632 0.129833 0)
(0.290524 0.098882 0)
(0.251171 0.0584385 0)
(0.229509 0.00837192 0)
(0.219054 -0.049465 0)
(0.212253 -0.106222 0)
(0.198023 -0.149629 0)
(0.170145 -0.16712 0)
(0.131522 -0.154627 0)
(0.384068 0.139854 0)
(0.392909 0.167682 0)
(0.361382 0.142182 0)
(0.333606 0.0918425 0)
(0.309753 0.0313754 0)
(0.28693 -0.0297072 0)
(0.256134 -0.081693 0)
(0.213485 -0.113637 0)
(0.160743 -0.120572 0)
(0.105286 -0.104521 0)
(0.299571 0.239753 0)
(0.24007 0.198486 0)
(0.240166 0.158375 0)
(0.240058 0.107494 0)
(0.231915 0.0496434 0)
(0.213061 -0.00277681 0)
(0.179517 -0.0402442 0)
(0.133073 -0.060751 0)
(0.0805292 -0.0638366 0)
(0.0296494 -0.0515677 0)
(0.0250206 -0.427829 0)
(-0.256636 -0.365902 0)
(-0.167625 0.132016 0)
(-0.0698125 0.16321 0)
(-0.00655647 0.133054 0)
(0.030713 0.0946412 0)
(0.0481077 0.0519881 0)
(0.0470133 0.0145371 0)
(0.0318442 -0.0085654 0)
(0.00281917 -0.0187528 0)
(-0.0324462 -0.0205103 0)
(-0.0587444 -0.00957394 0)
(-0.238582 -0.167643 0)
(-0.366943 -0.0835699 0)
(-0.405852 0.0365022 0)
(-0.325825 0.08294 0)
(-0.237172 0.0808886 0)
(-0.164831 0.0645498 0)
(-0.116731 0.0442835 0)
(-0.0946754 0.0279028 0)
(-0.0926219 0.0203188 0)
(-0.0993633 0.0192899 0)
(-0.106923 0.0125494 0)
(-0.111947 -0.0298511 0)
(0.763124 0.466217 0)
(0.317346 0.263937 0)
(0.350576 0.154134 0)
(0.279191 0.112507 0)
(0.221286 0.0883843 0)
(0.182304 0.0610751 0)
(0.16257 0.0253139 0)
(0.158868 -0.0229514 0)
(0.164508 -0.0792849 0)
(0.16838 -0.134384 0)
(0.161609 -0.17272 0)
(0.1405 -0.181205 0)
(0.789186 -0.172601 0)
(0.153759 0.238248 0)
(0.398894 0.165742 0)
(0.428848 0.164899 0)
(0.376631 0.145074 0)
(0.331487 0.10207 0)
(0.298135 0.0487063 0)
(0.275893 -0.0112027 0)
(0.256648 -0.0711395 0)
(0.232569 -0.119306 0)
(0.196615 -0.144505 0)
(0.150047 -0.141899 0)
(0.309576 0.0919157 0)
(0.358866 0.18966 0)
(0.329074 0.169867 0)
(0.314969 0.129665 0)
(0.299513 0.0723907 0)
(0.281085 0.0118716 0)
(0.25337 -0.0408179 0)
(0.210681 -0.0771209 0)
(0.157055 -0.0922426 0)
(0.100287 -0.0863247 0)
(0.440334 0.218184 0)
(0.0653289 0.214217 0)
(0.110013 0.172921 0)
(0.134724 0.129826 0)
(0.144898 0.0795482 0)
(0.139487 0.0291549 0)
(0.121086 -0.00887864 0)
(0.0890741 -0.0313292 0)
(0.0468912 -0.040017 0)
(0.00349413 -0.0365414 0)
(0.497789 -0.254921 0)
(-0.191906 -0.257251 0)
(-0.351228 -0.0680254 0)
(-0.26635 0.0972785 0)
(-0.171033 0.109007 0)
(-0.10244 0.0896528 0)
(-0.0562193 0.0601993 0)
(-0.0329456 0.0294373 0)
(-0.0319212 0.00688932 0)
(-0.0454247 -0.0030281 0)
(-0.0676293 -0.00572634 0)
(-0.0856167 -0.00487796 0)
(0.329679 -0.248457 0)
(-0.347054 -0.156591 0)
(-0.474522 -0.100613 0)
(-0.453133 -0.0523267 0)
(-0.366179 -0.0368964 0)
(-0.276162 -0.0380837 0)
(-0.205552 -0.0447085 0)
(-0.160337 -0.0509329 0)
(-0.135789 -0.0547463 0)
(-0.121645 -0.0586325 0)
(-0.110931 -0.0660458 0)
(-0.113857 -0.071503 0)
(0.343964 0.291018 0)
(0.354661 0.201353 0)
(0.315257 0.127547 0)
(0.247893 0.100493 0)
(0.199018 0.0757149 0)
(0.169953 0.0449044 0)
(0.158783 0.00296231 0)
(0.161306 -0.0500077 0)
(0.167292 -0.107246 0)
(0.166683 -0.156145 0)
(0.152693 -0.180863 0)
(0.126298 -0.17355 0)
(-0.224535 0.189513 0)
(0.297009 0.191693 0)
(0.435817 0.158898 0)
(0.40335 0.159918 0)
(0.352725 0.125174 0)
(0.313153 0.0764523 0)
(0.286359 0.0193977 0)
(0.266268 -0.0418383 0)
(0.245803 -0.0974587 0)
(0.216209 -0.13527 0)
(0.174259 -0.146629 0)
(0.125095 -0.130914 0)
(0.377327 0.191691 0)
(0.34054 0.18087 0)
(0.321801 0.152787 0)
(0.307523 0.102278 0)
(0.290858 0.0416878 0)
(0.269251 -0.0160551 0)
(0.233755 -0.0614439 0)
(0.184801 -0.087416 0)
(0.128508 -0.0917763 0)
(0.0721655 -0.0765578 0)
(0.0742963 0.213472 0)
(0.0896216 0.19413 0)
(0.124331 0.152141 0)
(0.141679 0.105378 0)
(0.14418 0.0536082 0)
(0.130983 0.00810519 0)
(0.10676 -0.0218594 0)
(0.0688108 -0.0373629 0)
(0.024732 -0.0396958 0)
(-0.016981 -0.0302319 0)
(-0.172208 -0.282429 0)
(-0.308619 -0.188721 0)
(-0.320037 0.0399122 0)
(-0.214458 0.110973 0)
(-0.133948 0.101101 0)
(-0.0765875 0.0757256 0)
(-0.0416485 0.0443568 0)
(-0.029954 0.0166062 0)
(-0.0372816 0.000568613 0)
(-0.0558959 -0.00486359 0)
(-0.078716 -0.0059316 0)
(-0.0862889 -0.000365908 0)
(-0.286649 -0.180366 0)
(-0.431248 -0.128997 0)
(-0.47873 -0.0735701 0)
(-0.412583 -0.0412833 0)
(-0.319615 -0.0363481 0)
(-0.237775 -0.0411358 0)
(-0.179855 -0.048116 0)
(-0.146083 -0.0530722 0)
(-0.128039 -0.0563937 0)
(-0.115895 -0.0619715 0)
(-0.108873 -0.0693816 0)
(-0.12352 -0.0764831 0)
)
;

boundaryField
{
    floor
    {
        type            noSlip;
    }
    ceiling
    {
        type            noSlip;
    }
    sWall
    {
        type            noSlip;
    }
    nWall
    {
        type            noSlip;
    }
    sideWalls
    {
        type            empty;
    }
    glass1
    {
        type            noSlip;
    }
    glass2
    {
        type            noSlip;
    }
    sun
    {
        type            noSlip;
    }
    Table_master
    {
        type            noSlip;
    }
    Table_slave
    {
        type            noSlip;
    }
    inlet
    {
        type            fixedValue;
        value           uniform (0.5 0 0);
    }
    outlet
    {
        type            zeroGradient;
    }
}


// ************************************************************************* //
