/*--------------------------------*- C++ -*----------------------------------*\
  =========                 |
  \\      /  F ield         | OpenFOAM: The Open Source CFD Toolbox
   \\    /   O peration     | Website:  https://openfoam.org
    \\  /    A nd           | Version:  6
     \\/     M anipulation  |
\*---------------------------------------------------------------------------*/
FoamFile
{
    version     2.0;
    format      ascii;
    class       volScalarField;
    location    "39499.9999990600845";
    object      epsilon;
}
// * * * * * * * * * * * * * * * * * * * * * * * * * * * * * * * * * * * * * //

dimensions      [0 2 -3 0 0 0 0];

internalField   nonuniform List<scalar> 
778
(
0.000253118
0.000306334
0.000302974
0.000344143
0.00038501
0.00042483
0.000464297
0.0005046
0.000547474
0.000595638
0.000644143
0.000692593
0.000742632
0.000799052
0.000860873
8.94917e-05
0.000262666
0.000269156
0.000250139
0.000220313
0.000184261
0.000152456
0.0001266
0.00010596
8.94847e-05
7.63303e-05
6.56747e-05
5.68754e-05
4.94053e-05
4.27922e-05
3.65375e-05
3.18296e-05
2.36063e-05
0.000797
0.00144319
0.000286978
0.000259582
0.000261687
0.000267669
0.000276577
0.000290022
0.000310299
0.000340535
0.000379799
0.000430983
0.000499454
0.000600765
0.000786041
0.00112989
0.000979227
0.000858768
0.000511718
0.000369429
0.000294236
0.000242959
0.000204163
0.00018704
0.000154817
0.000125085
0.000100747
8.15182e-05
6.65449e-05
5.48353e-05
4.56422e-05
3.8718e-05
3.45279e-05
3.27718e-05
6.57759e-05
4.80901e-05
0.00163065
0.00407905
0.00040738
0.000242923
0.000229105
0.000231027
0.000238253
0.000250535
0.000268458
0.000292755
0.000324914
0.000367021
0.000421453
0.000495212
0.000601649
0.000724966
0.000830197
0.00158453
0.00102786
0.000512293
0.00036772
0.000294334
0.000262182
0.000551626
0.000362774
0.00025088
0.000181443
0.000136371
0.000105972
8.48145e-05
6.98451e-05
5.94814e-05
4.51475e-05
3.79918e-05
0.000108087
7.07793e-05
0.00285358
0.00877023
0.000709854
0.000240719
0.000202479
0.000200023
0.000203206
0.000209844
0.000220675
0.00023761
0.000263323
0.000300099
0.000349345
0.000412505
0.000488196
0.000560381
0.000612611
0.000824752
0.00156533
0.000728792
0.000459719
0.000358263
0.000301902
0.000291825
0.000814159
0.000612726
0.00048196
0.000388576
0.000319205
0.0002644
0.000218829
0.000179074
0.000141896
8.38329e-05
5.49201e-05
0.000148369
9.44596e-05
0.00454609
0.0158268
0.00134627
0.000258334
0.00017573
0.000166796
0.000165814
0.000167801
0.000173973
0.000187489
0.000211748
0.000248451
0.000297892
0.000359452
0.000427921
0.000489285
0.000528696
0.000582655
0.000627823
0.000483321
0.000393552
0.000331058
0.000282308
0.000248634
0.000247847
0.000226793
0.000202961
0.000181098
0.000162726
0.000146566
0.000131891
0.000118285
0.000105107
8.45106e-05
6.42454e-05
0.00010508
0.000138746
0.000159909
0.000361665
0.000319464
0.00676368
0.024877
0.0025532
0.000318053
0.000155531
0.000137065
0.000132137
0.000130713
0.000134486
0.000148576
0.000176729
0.000218105
0.000270839
0.000334156
0.000401778
0.000462664
0.000503092
0.000521848
0.000505007
0.000438416
0.000373928
0.00031571
0.000264777
0.00022341
0.000193309
0.000169646
0.000150829
0.000135644
0.000123316
0.000112772
0.000103312
9.45342e-05
8.60653e-05
7.58892e-05
6.53926e-05
7.75736e-05
9.96583e-05
0.000209017
0.00106392
0.000548425
0.009672
0.0336352
0.00458303
0.000464947
0.000150834
0.000116342
0.000107097
0.000103302
0.000107101
0.000127923
0.000166115
0.000215852
0.000273254
0.000339971
0.000409259
0.00047041
0.000510193
0.00052055
0.000494469
0.00043777
0.000371941
0.000307538
0.000250582
0.00020446
0.000169762
0.000144564
0.000126329
0.000112741
0.000102293
9.37335e-05
8.62434e-05
7.93521e-05
7.27772e-05
6.61041e-05
6.03685e-05
6.38001e-05
7.66616e-05
0.000172372
0.00158191
0.000894138
0.0127587
0.0404046
0.00748874
0.000871178
0.000194281
0.000115393
9.74091e-05
9.14939e-05
9.8698e-05
0.000137754
0.000189287
0.000246196
0.000306921
0.000373654
0.000444591
0.00050791
0.000547336
0.000550991
0.000515817
0.000451665
0.000375573
0.000300974
0.000236471
0.000185951
0.000149303
0.000123969
0.000106697
9.45592e-05
8.57404e-05
7.88272e-05
7.29324e-05
6.75641e-05
6.24819e-05
5.76597e-05
5.40338e-05
5.59315e-05
6.98589e-05
0.000340708
0.00549883
0.00197852
0.0138276
0.0414608
0.0139296
0.00316209
0.000629722
0.000208047
0.000132767
0.000116101
0.00014262
0.000193084
0.000249375
0.000306391
0.000367191
0.000436361
0.000510738
0.000575431
0.000610739
0.000603142
0.000552222
0.000471017
0.000378469
0.00029083
0.000218157
0.00016394
0.000126722
0.000102567
8.72514e-05
7.73132e-05
7.06502e-05
6.56774e-05
6.14986e-05
5.76707e-05
5.4023e-05
5.06689e-05
4.8574e-05
5.26904e-05
9.44161e-05
0.000954655
0.0135186
0.00292675
0.0130051
0.0283734
0.0144145
0.00572503
0.00210376
0.000834759
0.000414064
0.000277277
0.000279458
0.000314984
0.000356336
0.000401767
0.000458404
0.000530475
0.000609414
0.000673439
0.000698337
0.000670509
0.000593832
0.000486683
0.000372511
0.000270469
0.000190926
0.000135601
0.000100582
7.98158e-05
6.79149e-05
6.11378e-05
5.70653e-05
5.41341e-05
5.15966e-05
4.91493e-05
4.67459e-05
4.46846e-05
4.45774e-05
5.7086e-05
0.000199144
0.00241644
0.0115709
0.00310545
0.0106904
0.0193589
0.0120386
0.00629966
0.0031743
0.00167496
0.000987236
0.000679659
0.000560702
0.000517922
0.000510805
0.000531553
0.000583411
0.000662068
0.000746523
0.000804189
0.000806768
0.000743972
0.000628085
0.000485987
0.000347234
0.000233127
0.000152142
0.000101585
7.34683e-05
5.87499e-05
5.13016e-05
4.78699e-05
4.6068e-05
4.47486e-05
4.34345e-05
4.19788e-05
4.04795e-05
3.96205e-05
4.32507e-05
8.31223e-05
0.000504022
0.00275838
0.00879425
0.00301797
0.00807255
0.0137699
0.00969163
0.00593296
0.00356956
0.00222756
0.00149105
0.00109341
0.000869828
0.000744093
0.000686282
0.000690145
0.000749966
0.00084353
0.00093069
0.000967137
0.000925478
0.000805742
0.000635168
0.000452056
0.00029239
0.000176731
0.000106629
6.93042e-05
5.24196e-05
4.43025e-05
4.04623e-05
3.90411e-05
3.84493e-05
3.79973e-05
3.7393e-05
3.6569e-05
3.57454e-05
3.63158e-05
4.90059e-05
0.000175813
0.000860911
0.00279332
0.00649781
0.00273788
0.00612274
0.0101639
0.00778855
0.00531153
0.00356983
0.00246905
0.00178805
0.00136845
0.00109328
0.00092647
0.000859509
0.000886311
0.00098136
0.00109505
0.0011669
0.00114846
0.00102679
0.000822851
0.000587007
0.000368503
0.000207387
0.000114094
7.19256e-05
5.2263e-05
4.28804e-05
3.80785e-05
3.56605e-05
3.47683e-05
3.44601e-05
3.43019e-05
3.4117e-05
3.39198e-05
3.41271e-05
3.72996e-05
6.16616e-05
0.000229055
0.000934368
0.00264775
0.00550794
0.0025107
0.00617899
0.00780566
0.00679983
0.00473726
0.00336433
0.00246161
0.00186535
0.00146215
0.00119471
0.00106495
0.00107027
0.00117878
0.00132596
0.00143297
0.00143417
0.00129895
0.00105268
0.000744642
0.000457472
0.000238371
0.000130817
8.18002e-05
6.02472e-05
4.96287e-05
4.34954e-05
3.94897e-05
3.68901e-05
3.55788e-05
3.50658e-05
3.50648e-05
3.55509e-05
3.67067e-05
3.91546e-05
4.5797e-05
7.28484e-05
0.000206444
0.000741888
0.00210924
0.0051397
0.00277226
0.00454401
0.00511083
0.00418342
0.00336085
0.00263905
0.00206958
0.00164862
0.00136177
0.00124539
0.00130098
0.00147695
0.00168236
0.00181692
0.00180821
0.0016319
0.00130282
0.000914151
0.000522406
0.000279921
0.000155468
0.000102432
8.00445e-05
6.90148e-05
6.18456e-05
5.60602e-05
5.10378e-05
4.69871e-05
4.45432e-05
4.38199e-05
4.47143e-05
4.7622e-05
5.32536e-05
6.26448e-05
7.84621e-05
0.000112148
0.000213977
0.000583405
0.00189176
0.00394748
0.00316856
0.00140159
0.00143167
0.00143365
0.00135417
0.00131173
0.00142454
0.0017095
0.0020428
0.00230114
0.00239451
0.00227738
0.00196752
0.0015274
0.000984248
0.000572903
0.000314771
0.000188967
0.000137013
0.000116565
0.000106765
0.000100022
9.37771e-05
8.7228e-05
8.04337e-05
7.42737e-05
7.04813e-05
7.05251e-05
7.50435e-05
8.5621e-05
0.0001043
0.000133086
0.000174918
0.000239608
0.000362704
0.000671037
0.00204675
0.00338479
0.0032954
0.00118755
0.00171733
0.00195428
0.00231093
0.00275994
0.00316371
0.00334067
0.00330168
0.00307233
0.00267737
0.00211114
0.00149644
0.000967932
0.000571547
0.000342958
0.000236246
0.000194765
0.00017901
0.000171533
0.000166334
0.000161498
0.000156158
0.00014983
0.000142634
0.000135848
0.000132309
0.000135241
0.000146786
0.000170623
0.000211398
0.000274288
0.000366091
0.000500817
0.000715138
0.00111265
0.00221572
0.00410794
0.00324577
0.007421
0.00806238
0.00480552
0.00340436
0.00374145
0.00415487
0.00416865
0.00395647
0.00359624
0.00313713
0.00262667
0.00208304
0.0015359
0.0010549
0.000698358
0.000479815
0.000373445
0.000328994
0.000309446
0.000298399
0.000290919
0.000285831
0.000282574
0.000280191
0.000277394
0.000273326
0.00026889
0.000268005
0.000274743
0.000292544
0.000326348
0.000383183
0.000472662
0.000608504
0.000812782
0.00112615
0.00163176
0.002494
0.00387139
0.00284226
0.00650519
0.00513054
0.00437366
0.00462709
0.00454775
0.0042795
0.00369767
0.00304991
0.00246283
0.00196824
0.00156277
0.00123717
0.000984519
0.000802635
0.000686042
0.000617159
0.000571337
0.00053876
0.000514643
0.000497852
0.00048906
0.000489157
0.000498236
0.000515155
0.000537584
0.000562495
0.000586976
0.000608977
0.000631133
0.000660625
0.00070502
0.000772055
0.00087117
0.00101623
0.00123062
0.00155431
0.00205486
0.00288898
0.00395147
0.00287233
0.00535871
0.00336882
0.00331808
0.00361425
0.00387146
0.00353045
0.00292668
0.00231319
0.00179178
0.00137842
0.00105978
0.000820469
0.000649216
0.000536593
0.000470941
0.000438722
0.000429932
0.000431043
0.000439719
0.000456373
0.000481834
0.000516142
0.000558107
0.000605567
0.000656084
0.000707762
0.00075997
0.000813926
0.000870806
0.00093349
0.0010073
0.00109756
0.00120906
0.00134556
0.0015082
0.00169245
0.00189385
0.00216081
0.00264608
0.00263858
)
;

boundaryField
{
    floor
    {
        Cmu             0.09;
        kappa           0.41;
        E               9.8;
        type            epsilonWallFunction;
        value           nonuniform List<scalar> 
36
(
0.000860873
8.94917e-05
0.000262666
0.000269156
0.000250139
0.000220313
0.000184261
0.000152456
0.0001266
0.00010596
8.94847e-05
7.63303e-05
6.56747e-05
5.68754e-05
4.94053e-05
4.27922e-05
3.65375e-05
3.18296e-05
2.36063e-05
2.36063e-05
4.80901e-05
7.07793e-05
9.44596e-05
0.000159909
0.000361665
0.000319464
0.000860873
0.00112989
0.000979227
0.000858768
8.94917e-05
0.000858768
0.000511718
0.00158453
0.00102786
0.00156533
)
;
    }
    ceiling
    {
        Cmu             0.09;
        kappa           0.41;
        E               9.8;
        type            epsilonWallFunction;
        value           nonuniform List<scalar> 
43
(
0.00535871
0.00336882
0.00331808
0.00361425
0.00387146
0.00353045
0.00292668
0.00231319
0.00179178
0.00137842
0.00105978
0.000820469
0.000649216
0.000536593
0.000470941
0.000438722
0.000429932
0.000431043
0.000439719
0.000456373
0.000481834
0.000516142
0.000558107
0.000605567
0.000656084
0.000707762
0.00075997
0.000813926
0.000870806
0.00093349
0.0010073
0.00109756
0.00120906
0.00134556
0.0015082
0.00169245
0.00189385
0.00216081
0.00264608
0.00263858
0.00454401
0.00511083
0.00118755
)
;
    }
    sWall
    {
        Cmu             0.09;
        kappa           0.41;
        E               9.8;
        type            epsilonWallFunction;
        value           nonuniform List<scalar> 9(0.0130051 0.0106904 0.00807255 0.00612274 0.00617899 0.00454401 0.007421 0.00650519 0.00535871);
    }
    nWall
    {
        Cmu             0.09;
        kappa           0.41;
        E               9.8;
        type            epsilonWallFunction;
        value           nonuniform List<scalar> 
14
(
0.000319464
0.000548425
0.000894138
0.00310545
0.00301797
0.00273788
0.0025107
0.00277226
0.00316856
0.0032954
0.00324577
0.00284226
0.00287233
0.00263858
)
;
    }
    sideWalls
    {
        type            empty;
    }
    glass1
    {
        Cmu             0.09;
        kappa           0.41;
        E               9.8;
        type            epsilonWallFunction;
        value           nonuniform List<scalar> 9(0.000253118 0.000797 0.00163065 0.00285358 0.00454609 0.00676368 0.009672 0.0127587 0.0138276);
    }
    glass2
    {
        Cmu             0.09;
        kappa           0.41;
        E               9.8;
        type            epsilonWallFunction;
        value           nonuniform List<scalar> 2(0.00197852 0.00292675);
    }
    sun
    {
        Cmu             0.09;
        kappa           0.41;
        E               9.8;
        type            epsilonWallFunction;
        value           nonuniform List<scalar> 
14
(
0.000253118
0.000306334
0.000302974
0.000344143
0.00038501
0.00042483
0.000464297
0.0005046
0.000547474
0.000595638
0.000644143
0.000692593
0.000742632
0.000799052
)
;
    }
    Table_master
    {
        Cmu             0.09;
        kappa           0.41;
        E               9.8;
        type            epsilonWallFunction;
        value           nonuniform List<scalar> 9(0.000551626 0.000362774 0.00025088 0.000181443 0.000136371 0.000105972 8.48145e-05 6.98451e-05 5.94814e-05);
    }
    Table_slave
    {
        Cmu             0.09;
        kappa           0.41;
        E               9.8;
        type            epsilonWallFunction;
        value           nonuniform List<scalar> 9(0.000814159 0.000612726 0.00048196 0.000388576 0.000319205 0.0002644 0.000218829 0.000179074 0.000141896);
    }
    inlet
    {
        type            turbulentMixingLengthDissipationRateInlet;
        mixingLength    0.01;
        phi             phi;
        k               k;
        value           uniform 0.000471671;
    }
    outlet
    {
        type            zeroGradient;
    }
}


// ************************************************************************* //
