/*--------------------------------*- C++ -*----------------------------------*\
  =========                 |
  \\      /  F ield         | OpenFOAM: The Open Source CFD Toolbox
   \\    /   O peration     | Website:  https://openfoam.org
    \\  /    A nd           | Version:  6
     \\/     M anipulation  |
\*---------------------------------------------------------------------------*/
FoamFile
{
    version     2.0;
    format      ascii;
    class       volScalarField;
    location    "990";
    object      alphat;
}
// * * * * * * * * * * * * * * * * * * * * * * * * * * * * * * * * * * * * * //

dimensions      [1 -1 -1 0 0 0 0];

internalField   nonuniform List<scalar> 
458
(
0.00124416
0.00135529
0.00138598
0.00145231
0.0015134
0.00157125
0.00162912
0.00168788
0.00173593
0.00176614
0.00176957
0.00173743
0.00165868
0.00149196
0.00113183
0.000559131
0.000655501
0.00074319
0.000774916
0.000762779
0.000713788
0.000659589
0.000611096
0.000569093
0.000532611
0.000500753
0.000472877
0.000448157
0.000425645
0.000404292
0.00038285
0.000370102
0.000340117
0.0016765
0.00377414
0.00348138
0.003989
0.00449516
0.00501585
0.00548313
0.00584457
0.00621595
0.00656372
0.00684275
0.00701218
0.00702776
0.00678266
0.00551189
0.00149413
0.00123955
0.00101126
0.000554608
0.00131635
0.00191842
0.00238449
0.00253186
0.00184521
0.0015577
0.00136208
0.0012177
0.00110709
0.00101931
0.000943618
0.000872505
0.000801516
0.000738103
0.000684932
0.000837903
0.000447102
0.00203701
0.0050722
0.00418633
0.00510415
0.00548995
0.0057609
0.00596917
0.00616153
0.00642949
0.00675543
0.00711171
0.00746068
0.00773579
0.00783143
0.00737855
0.0060133
0.00455713
0.00119444
0.000854265
0.0014742
0.00214512
0.00281238
0.00300289
0.000959397
0.000839932
0.000740533
0.000660024
0.000595053
0.000542401
0.000499602
0.000464989
0.000438067
0.000485427
0.000562181
0.000983157
0.000528371
0.00238384
0.00647808
0.00407223
0.00528753
0.00549859
0.00547746
0.00545787
0.00555006
0.0057682
0.00609102
0.00650119
0.00695838
0.00735815
0.00760874
0.00755114
0.00716003
0.00614494
0.00337368
0.001376
0.00175182
0.00240808
0.00321171
0.00390837
0.00394256
0.00108057
0.000990461
0.000929086
0.000883782
0.000845475
0.000807397
0.000771249
0.000733057
0.000688421
0.000648439
0.00063903
0.00117177
0.00060855
0.00273789
0.00836901
0.0042713
0.00501905
0.00532053
0.00514011
0.00499321
0.0050768
0.00530729
0.00564348
0.00608597
0.00658749
0.00697932
0.00717375
0.00716809
0.00703061
0.00662519
0.00547849
0.00496526
0.00500082
0.00529179
0.00563852
0.00585123
0.00575498
0.00490992
0.00447539
0.00423592
0.0040644
0.00389086
0.0036675
0.00328729
0.00279777
0.00224101
0.00170472
0.00127871
0.00119147
0.00103428
0.000813316
0.000860753
0.000935582
0.00311671
0.0104979
0.00584928
0.00464688
0.00506391
0.00505289
0.00486518
0.00493488
0.00517019
0.00550679
0.00595582
0.0064366
0.00679943
0.0069149
0.00680433
0.00664661
0.00657551
0.00648085
0.00667548
0.00701321
0.00724999
0.00729192
0.00713205
0.0067979
0.00633123
0.00595208
0.00565688
0.0053968
0.00514133
0.00487018
0.00451996
0.00403979
0.00343249
0.00274562
0.00210994
0.00153012
0.00125764
0.00109695
0.00138123
0.000970512
0.00348935
0.0121023
0.00872508
0.00571104
0.00496946
0.00504026
0.00510354
0.00514038
0.00527421
0.00557145
0.00601345
0.00648996
0.00682245
0.00685889
0.0066495
0.00649799
0.00674691
0.00729948
0.00786192
0.00817909
0.00817947
0.00790704
0.00744596
0.00688482
0.00632578
0.00587587
0.0055352
0.00525884
0.00501708
0.00479997
0.00460253
0.00434435
0.00391992
0.00335272
0.0027636
0.00219762
0.0018282
0.00167476
0.00159631
0.00115313
0.00357897
0.0112147
0.00952711
0.00799867
0.0068291
0.00631093
0.00582388
0.00549412
0.00549026
0.00577433
0.00623145
0.00670195
0.0069814
0.00691648
0.00665999
0.00672356
0.00743534
0.00801943
0.00832349
0.00830922
0.00797888
0.00740781
0.00670529
0.0059967
0.00540771
0.00499483
0.00471633
0.00451628
0.00436815
0.00426835
0.004224
0.00422609
0.00411307
0.00377596
0.00344742
0.00326432
0.00334393
0.00352997
0.00419311
0.00178526
0.00350482
0.00423035
0.00467527
0.00492475
0.00496196
0.00488871
0.00489236
0.00510076
0.00552069
0.00605449
0.00659961
0.00702816
0.00716479
0.00691767
0.00684781
0.00720874
0.00762593
0.00776867
0.00766469
0.00730196
0.00669419
0.00594366
0.0051943
0.0045792
0.00415346
0.00388228
0.00370036
0.00356212
0.00344423
0.00333354
0.00322009
0.00309552
0.00298254
0.00288474
0.00281988
0.00278329
0.00271383
0.00257095
0.00239734
0.00166673
0.00157961
0.00276026
0.00377636
0.00457223
0.00530135
0.00601054
0.00657208
0.00694803
0.00719197
0.00722448
0.00698642
0.00669779
0.00669906
0.00681869
0.00672664
0.00645573
0.00602861
0.00545369
0.00479245
0.00414632
0.00363183
0.00328527
0.0030727
0.00294225
0.00285563
0.00279245
0.00274401
0.00270827
0.00268821
0.00269445
0.00271017
0.00272418
0.00272488
0.00268174
0.00254873
0.00231444
0.0020242
0.00134113
0.00238082
0.00465407
0.00595225
0.00679289
0.00744627
0.00749597
0.00710422
0.00671097
0.00637282
0.00573451
0.0052815
0.00517654
0.00510535
0.00490549
0.00460437
0.00423103
0.00379342
0.00333294
0.00291772
0.00259479
0.00237202
0.00224354
0.00218327
0.00217023
0.00219144
0.00223859
0.00230461
0.00238099
0.00247041
0.00257304
0.00268287
0.00279072
0.00287848
0.00292226
0.00288136
0.00284568
0.00261997
0.00135861
0.00249159
0.00255349
0.00260942
0.00289319
0.00272888
0.002414
0.00203338
0.00172846
0.00154194
0.00136512
0.0012096
0.00108792
0.000984905
0.000906849
0.000852608
0.000812985
0.000781122
0.000753713
0.000731084
0.000715816
0.000710118
0.000714391
0.00072708
0.000745733
0.000769301
0.000797228
0.000829356
0.000865876
0.000907392
0.000955197
0.0010096
0.00107018
0.00113725
0.00121114
0.00129187
0.0013886
0.00143091
0.00140157
0.00130363
0.00120553
)
;

boundaryField
{
    floor
    {
        type            compressible::alphatWallFunction;
        Prt             0.85;
        value           nonuniform List<scalar> 
36
(
0.00016069
7.82049e-05
9.26108e-05
0.000105495
0.000110112
0.000108349
0.000101198
9.32169e-05
8.60083e-05
7.97078e-05
7.41887e-05
6.93305e-05
6.50478e-05
6.12234e-05
5.77171e-05
5.43695e-05
5.0985e-05
4.89614e-05
4.41655e-05
4.41649e-05
6.10603e-05
7.35453e-05
8.56297e-05
0.000115677
0.000122504
0.000133175
0.000160688
0.000210161
0.000175564
0.000143846
7.8204e-05
0.000143845
7.75208e-05
0.000169353
0.000121557
0.0001942
)
;
    }
    ceiling
    {
        type            compressible::alphatWallFunction;
        Prt             0.85;
        value           nonuniform List<scalar> 
43
(
0.000340273
0.000348136
0.000355226
0.00039103
0.000370428
0.000330524
0.000281521
0.000241545
0.000216712
0.000192856
0.000171583
0.00015472
0.000140272
0.000129207
0.000121453
0.000115751
0.000111142
0.000107159
0.000103858
0.000101623
0.000100788
0.000101414
0.000103272
0.000105996
0.000109427
0.000113475
0.000118112
0.000123356
0.000129287
0.000136076
0.000143754
0.000152248
0.000161588
0.000171803
0.000182884
0.000196059
0.000201789
0.000197819
0.000184493
0.000171035
0.000467124
0.000555329
0.000326051
)
;
    }
    sWall
    {
        type            compressible::alphatWallFunction;
        Prt             0.85;
        value           uniform 0.00033903;
    }
    nWall
    {
        type            compressible::alphatWallFunction;
        Prt             0.85;
        value           nonuniform List<scalar> 6(0.000132957 0.000137898 0.00016343 0.000189266 0.000191643 0.000170694);
    }
    sideWalls
    {
        type            empty;
    }
    glass1
    {
        type            compressible::alphatWallFunction;
        Prt             0.85;
        value           nonuniform List<scalar> 9(0.000171665 0.000229173 0.000275999 0.000320295 0.000364878 0.000411961 0.000457739 0.00046881 0.000460001);
    }
    glass2
    {
        type            compressible::alphatWallFunction;
        Prt             0.85;
        value           nonuniform List<scalar> 2(0.000247087 0.000231545);
    }
    sun
    {
        type            compressible::alphatWallFunction;
        Prt             0.85;
        value           nonuniform List<scalar> 
14
(
0.000176215
0.000191385
0.000195554
0.000204528
0.000212753
0.000220507
0.000228233
0.000236047
0.000242414
0.000246406
0.000246858
0.000242611
0.000232166
0.000209869
)
;
    }
    Table_master
    {
        type            compressible::alphatWallFunction;
        Prt             0.85;
        value           nonuniform List<scalar> 9(0.000136684 0.000119647 0.000105251 9.34199e-05 8.37439e-05 7.58069e-05 6.92843e-05 6.39579e-05 5.97801e-05);
    }
    Table_slave
    {
        type            compressible::alphatWallFunction;
        Prt             0.85;
        value           nonuniform List<scalar> 9(0.000153716 0.000141076 0.000132389 0.000125935 0.000120446 0.000114961 0.000109725 0.000104161 9.7614e-05);
    }
    inlet
    {
        type            fixedValue;
        value           uniform 1.94e-05;
    }
    outlet
    {
        type            zeroGradient;
    }
}


// ************************************************************************* //
