/*--------------------------------*- C++ -*----------------------------------*\
  =========                 |
  \\      /  F ield         | OpenFOAM: The Open Source CFD Toolbox
   \\    /   O peration     | Website:  https://openfoam.org
    \\  /    A nd           | Version:  6
     \\/     M anipulation  |
\*---------------------------------------------------------------------------*/
FoamFile
{
    version     2.0;
    format      ascii;
    class       volScalarField;
    location    "990";
    object      k;
}
// * * * * * * * * * * * * * * * * * * * * * * * * * * * * * * * * * * * * * //

dimensions      [0 2 -2 0 0 0 0];

internalField   nonuniform List<scalar> 
458
(
0.00226802
0.00268634
0.00280914
0.00308437
0.00334925
0.0036101
0.00388084
0.00416572
0.00440608
0.00456048
0.00457795
0.00441307
0.00402215
0.00325453
0.00187352
0.000457647
0.000628906
0.000808382
0.000878908
0.00085163
0.000745774
0.000636843
0.000546663
0.000474113
0.000415288
0.000367105
0.000327382
0.00029406
0.000265267
0.000239328
0.000214624
0.000200578
0.00016942
0.00412339
0.00755223
0.0041509
0.00437492
0.00471692
0.00513636
0.00563362
0.00619811
0.00680222
0.00731468
0.00758996
0.00753241
0.00712478
0.00635523
0.00513888
0.00326448
0.00224695
0.00149575
0.00045031
0.00097318
0.00130338
0.00145853
0.00147292
0.00125955
0.00102449
0.000834122
0.000688823
0.000577384
0.000490709
0.000421545
0.000364725
0.00031746
0.000283527
0.000264393
0.000493833
0.000292746
0.00609564
0.0136492
0.00491227
0.0047259
0.00494268
0.00528733
0.00575237
0.00634265
0.00699589
0.00755266
0.00789469
0.00795188
0.00769514
0.00706176
0.00603798
0.0048891
0.0039192
0.00208668
0.00106813
0.00139974
0.0016037
0.00173059
0.00172307
0.00134735
0.00103269
0.000802738
0.000637686
0.000518322
0.000430657
0.000365376
0.000316504
0.000280916
0.000262158
0.000265452
0.000780274
0.000408844
0.00835948
0.0222362
0.00592803
0.00470788
0.00474757
0.00501773
0.00547513
0.00616974
0.00689448
0.00746516
0.00783611
0.007956
0.0077504
0.00714733
0.0062882
0.00543661
0.00463317
0.00350088
0.00276953
0.00250727
0.00237445
0.00233856
0.00229004
0.00215235
0.00170984
0.00143672
0.00126429
0.00114409
0.00104712
0.000954967
0.000871402
0.000787258
0.000694314
0.000530259
0.000422797
0.00113246
0.000542375
0.0110419
0.0339566
0.00842509
0.00475084
0.00448404
0.00470939
0.00530105
0.00635683
0.00718663
0.00774126
0.00809709
0.00819941
0.00790243
0.00718414
0.00621724
0.00531016
0.00458052
0.00397918
0.0037952
0.00348004
0.00325307
0.00307124
0.00285987
0.00259095
0.00230327
0.00210713
0.00198703
0.0018923
0.00179022
0.00166144
0.00149214
0.00129933
0.00109402
0.000865775
0.000664828
0.000922211
0.00106378
0.000969411
0.00108636
0.00128347
0.0143263
0.0466875
0.0149516
0.00592458
0.00474376
0.00478467
0.0057095
0.00726895
0.00803354
0.00847601
0.00874057
0.00874976
0.00832225
0.00738043
0.00612584
0.00496718
0.00418454
0.00384246
0.00381475
0.00382375
0.00373257
0.00350952
0.00319008
0.0028357
0.00254855
0.00239595
0.00232223
0.00226359
0.00218543
0.00206549
0.00187864
0.00164908
0.0014005
0.00114691
0.000935699
0.000900771
0.00103008
0.00105445
0.00165139
0.00138073
0.0179761
0.0550464
0.0270784
0.0123633
0.00831121
0.00741519
0.00850817
0.00921207
0.0094879
0.00964752
0.00973176
0.00958568
0.00894912
0.00771093
0.00611141
0.00469988
0.00388786
0.00373683
0.00389913
0.00398353
0.00385443
0.00355129
0.00317195
0.00281282
0.00256821
0.00246917
0.00245221
0.00245746
0.0024553
0.00242481
0.00233629
0.0021475
0.00191092
0.00165919
0.00145743
0.00136476
0.00145109
0.00168161
0.00223401
0.00194892
0.018941
0.0568403
0.0383016
0.0271735
0.0197457
0.0158855
0.0137287
0.012291
0.0115384
0.0112143
0.0110119
0.0106121
0.00964836
0.00799625
0.00597529
0.00439332
0.00367814
0.00365611
0.00378058
0.00375094
0.00351762
0.0031709
0.00282093
0.00255129
0.00240865
0.00238417
0.00243168
0.00251773
0.00263042
0.00276724
0.00292553
0.00306714
0.00310954
0.00313918
0.00329236
0.00386926
0.00511937
0.00681561
0.0128311
0.00467717
0.0182045
0.0264661
0.0243621
0.0217105
0.0188865
0.0164651
0.0146553
0.0135924
0.013089
0.0127707
0.0123601
0.0115988
0.0100732
0.00777035
0.00516001
0.00385836
0.00340329
0.00331025
0.00325368
0.00309202
0.00282411
0.0025284
0.00228319
0.0021348
0.00208933
0.00212353
0.00220979
0.00233319
0.00249009
0.00268167
0.00290932
0.00317121
0.0034898
0.00390101
0.00444787
0.00509752
0.00569682
0.00606935
0.00624886
0.00408136
0.00718418
0.0110939
0.0135425
0.0147744
0.0154396
0.0157112
0.0153814
0.0144565
0.0132172
0.0115886
0.00880985
0.00585867
0.00403621
0.00322565
0.00288159
0.0027005
0.00252817
0.00231833
0.00209105
0.00188821
0.00175209
0.00169312
0.00169784
0.00174766
0.00182975
0.00193921
0.00207745
0.00225111
0.00247286
0.00276576
0.00313122
0.003567
0.00405091
0.00449041
0.00471257
0.00457281
0.00410687
0.00264226
0.00805072
0.0194722
0.0216155
0.0215058
0.0207329
0.0184808
0.0153419
0.0120175
0.00883512
0.00623649
0.00435122
0.00326384
0.00271597
0.00241194
0.0022101
0.002032
0.00184726
0.00166436
0.00150876
0.00139854
0.00133788
0.00132598
0.00135477
0.00141858
0.00151579
0.00164781
0.00181792
0.00203043
0.00229586
0.00262428
0.00302432
0.00349677
0.00401534
0.00451211
0.00481677
0.00510142
0.00428743
0.0027114
0.00890517
0.0093506
0.00976447
0.0120865
0.0107982
0.00847943
0.00603532
0.00437066
0.00348269
0.0027321
0.00214621
0.00173667
0.00142362
0.00120705
0.00106706
0.000970234
0.000895709
0.000833977
0.000784671
0.000752248
0.000740326
0.000749264
0.000776116
0.000816446
0.000868865
0.000933091
0.00100981
0.0011007
0.00120878
0.0013395
0.00149641
0.00168139
0.00189878
0.00215355
0.00245031
0.00283118
0.00300656
0.00288468
0.00249564
0.00213477
)
;

boundaryField
{
    floor
    {
        type            kqRWallFunction;
        value           nonuniform List<scalar> 
36
(
0.00187352
0.000457647
0.000628906
0.000808382
0.000878908
0.00085163
0.000745774
0.000636843
0.000546663
0.000474113
0.000415288
0.000367105
0.000327382
0.00029406
0.000265267
0.000239328
0.000214624
0.000200578
0.00016942
0.00016942
0.000292746
0.000408844
0.000542375
0.000969411
0.00108636
0.00128347
0.00187352
0.00326448
0.00224695
0.00149575
0.000457647
0.00149575
0.00045031
0.00208668
0.00106813
0.00276953
)
;
    }
    ceiling
    {
        type            kqRWallFunction;
        value           nonuniform List<scalar> 
43
(
0.00890517
0.0093506
0.00976447
0.0120865
0.0107982
0.00847943
0.00603532
0.00437066
0.00348269
0.0027321
0.00214621
0.00173667
0.00142362
0.00120705
0.00106706
0.000970234
0.000895709
0.000833977
0.000784671
0.000752248
0.000740326
0.000749264
0.000776116
0.000816446
0.000868865
0.000933091
0.00100981
0.0011007
0.00120878
0.0013395
0.00149641
0.00168139
0.00189878
0.00215355
0.00245031
0.00283118
0.00300656
0.00288468
0.00249564
0.00213477
0.0182045
0.0264661
0.00805072
)
;
    }
    sWall
    {
        type            kqRWallFunction;
        value           uniform 0.00890517;
    }
    nWall
    {
        type            kqRWallFunction;
        value           nonuniform List<scalar> 6(0.00128347 0.00138073 0.00194892 0.00264226 0.0027114 0.00213477);
    }
    sideWalls
    {
        type            empty;
    }
    glass1
    {
        type            kqRWallFunction;
        value           nonuniform List<scalar> 9(0.00226802 0.00412339 0.00609564 0.00835948 0.0110419 0.0143263 0.0179761 0.018941 0.0182045);
    }
    glass2
    {
        type            kqRWallFunction;
        value           nonuniform List<scalar> 2(0.00467717 0.00408136);
    }
    sun
    {
        type            kqRWallFunction;
        value           nonuniform List<scalar> 
14
(
0.00226802
0.00268634
0.00280914
0.00308437
0.00334925
0.0036101
0.00388084
0.00416572
0.00440608
0.00456048
0.00457795
0.00441307
0.00402215
0.00325453
)
;
    }
    Table_master
    {
        type            kqRWallFunction;
        value           nonuniform List<scalar> 9(0.00134735 0.00103269 0.000802738 0.000637686 0.000518322 0.000430657 0.000365376 0.000316504 0.000280916);
    }
    Table_slave
    {
        type            kqRWallFunction;
        value           nonuniform List<scalar> 9(0.00170984 0.00143672 0.00126429 0.00114409 0.00104712 0.000954967 0.000871402 0.000787258 0.000694314);
    }
    inlet
    {
        type            turbulentIntensityKineticEnergyInlet;
        intensity       0.05;
        value           uniform 0.000937501;
    }
    outlet
    {
        type            zeroGradient;
    }
}


// ************************************************************************* //
