/*--------------------------------*- C++ -*----------------------------------*\
  =========                 |
  \\      /  F ield         | OpenFOAM: The Open Source CFD Toolbox
   \\    /   O peration     | Website:  https://openfoam.org
    \\  /    A nd           | Version:  6
     \\/     M anipulation  |
\*---------------------------------------------------------------------------*/
FoamFile
{
    version     2.0;
    format      ascii;
    class       volScalarField;
    location    "19700";
    object      alphat;
}
// * * * * * * * * * * * * * * * * * * * * * * * * * * * * * * * * * * * * * //

dimensions      [1 -1 -1 0 0 0 0];

internalField   nonuniform List<scalar> 
778
(
0.00104097
0.00111054
0.00110657
0.00115463
0.00119869
0.0012387
0.00127595
0.00131186
0.00134802
0.00138643
0.00142305
0.00145783
0.00149209
0.00152893
0.00156737
0.00073689
0.00105521
0.00106373
0.00103794
0.000994859
0.000937361
0.000880076
0.000827281
0.000779658
0.000736944
0.000698882
0.000664698
0.000633561
0.000604503
0.000576225
0.000546659
0.00052212
0.000472594
0.00152463
0.00300719
0.00263922
0.00304622
0.00334159
0.0036548
0.00396728
0.0042553
0.00448714
0.0046221
0.00470144
0.00466876
0.00443586
0.00385904
0.00281852
0.00171608
0.00163622
0.00156622
0.00131856
0.00224598
0.00311262
0.00362419
0.00364785
0.0028795
0.00246253
0.00217361
0.00195446
0.00178021
0.00163151
0.0015
0.00137762
0.00125789
0.00115042
0.00105774
0.00119168
0.000599127
0.00193408
0.00419857
0.00311349
0.00445309
0.00497569
0.00541803
0.00581984
0.00617353
0.00647319
0.00670808
0.00693569
0.0071751
0.00739498
0.00752567
0.00743849
0.00681054
0.00498128
0.00192117
0.00166378
0.00355994
0.00496723
0.005632
0.00512086
0.00135124
0.00117488
0.00103889
0.000932524
0.000847901
0.0007796
0.000723883
0.000678552
0.0006432
0.000707256
0.00083202
0.00131808
0.000681546
0.00232899
0.00565797
0.00297921
0.00500695
0.00578038
0.00619424
0.00649857
0.00672377
0.00689192
0.00702826
0.00722217
0.00754966
0.00802739
0.00862809
0.00923209
0.00952984
0.00894907
0.00667755
0.00191377
0.00443315
0.0065962
0.00769393
0.00796349
0.00679707
0.00153905
0.00139974
0.00129192
0.0012023
0.00112594
0.00105739
0.000992755
0.000928558
0.000859201
0.000802847
0.000832486
0.00142788
0.000750233
0.00271822
0.00748979
0.00300546
0.00475984
0.00594882
0.00630144
0.00642932
0.00643412
0.00637021
0.00631377
0.00639508
0.00671324
0.00729683
0.00812331
0.00908241
0.00996666
0.0105286
0.0105236
0.00944592
0.00961281
0.00983429
0.00986518
0.00966382
0.00904412
0.00719643
0.00621564
0.00554401
0.0049979
0.00446283
0.00394476
0.00343799
0.00293189
0.00241198
0.00185253
0.00141336
0.00141319
0.00111751
0.000895027
0.00119164
0.00113458
0.00310113
0.00953982
0.00353783
0.00401395
0.00569968
0.00609068
0.00605891
0.00584048
0.00552853
0.00527145
0.00526589
0.00559898
0.00626349
0.00722124
0.00834318
0.00946513
0.010421
0.0110327
0.0111454
0.0110348
0.0108398
0.0105621
0.0102046
0.00974969
0.00908617
0.00844724
0.00786735
0.00730633
0.00670106
0.00605509
0.00536532
0.00462587
0.00383207
0.00298979
0.0022267
0.00167179
0.00129769
0.00146738
0.00256379
0.00135393
0.00349186
0.0114351
0.00471401
0.00328825
0.00512152
0.00576106
0.00568926
0.0053358
0.00482355
0.00437325
0.00436043
0.0047807
0.00554079
0.00661074
0.00782951
0.00903724
0.0100779
0.0108242
0.0111684
0.0111433
0.0108992
0.0105286
0.0101039
0.00967994
0.00926991
0.00889377
0.00854048
0.00816295
0.00770722
0.00715898
0.0065101
0.00575756
0.00490444
0.00397235
0.00306033
0.00220932
0.00162607
0.00146265
0.00261031
0.00160144
0.0038276
0.012868
0.00642639
0.00313032
0.00405764
0.00510797
0.0052533
0.00496235
0.00435802
0.00374458
0.0038836
0.00443926
0.00528905
0.00639144
0.00765694
0.00892098
0.0100003
0.010751
0.0110928
0.0110496
0.0107342
0.0102683
0.00976694
0.00932217
0.00897926
0.00873431
0.00854327
0.00833521
0.00804568
0.00764054
0.00710391
0.00643279
0.00563396
0.00473113
0.00379111
0.0028359
0.00197549
0.00132798
0.00386663
0.00212028
0.00392887
0.0121736
0.00794953
0.00404556
0.00274974
0.00337179
0.0039453
0.00399244
0.00352495
0.00342546
0.00378118
0.00443438
0.00535326
0.00652267
0.00784935
0.00915237
0.0102274
0.0109194
0.0111628
0.0109964
0.0105385
0.00993785
0.00934202
0.00886664
0.00856488
0.00841683
0.00834988
0.00827011
0.0081038
0.00781125
0.00737679
0.00679903
0.00608589
0.00525649
0.00434446
0.00331559
0.00190943
0.0016765
0.00614295
0.00238156
0.00384947
0.0098117
0.00820735
0.00555176
0.0036664
0.00283928
0.00269041
0.00281771
0.00305373
0.00343018
0.00396467
0.00470008
0.00570026
0.0069624
0.00836247
0.00968419
0.0107023
0.011262
0.0113192
0.0109418
0.0102793
0.00951775
0.00883846
0.00837305
0.00815972
0.00813509
0.00818192
0.00818147
0.00807424
0.0078377
0.00746449
0.00695463
0.00631289
0.0055439
0.00462264
0.00332924
0.00149565
0.00291349
0.00592674
0.00243746
0.00360593
0.0083851
0.00793394
0.00635199
0.0048886
0.00393548
0.00346428
0.00335798
0.00355345
0.00391344
0.00443658
0.00521386
0.00632028
0.00770647
0.00917962
0.0104735
0.011349
0.0116711
0.0114372
0.010764
0.00985352
0.00894353
0.00825241
0.0079051
0.00786507
0.00798018
0.00809681
0.00809891
0.00798602
0.00775714
0.00740795
0.00693452
0.00632992
0.00556185
0.00449728
0.0029121
0.0016128
0.0032022
0.00659834
0.00247188
0.00328336
0.00755983
0.00765247
0.0067228
0.00571932
0.00496358
0.00451846
0.00435872
0.00439934
0.0046175
0.00509896
0.0059693
0.00725162
0.00879031
0.0102966
0.0114597
0.0120528
0.0119935
0.0113501
0.0103122
0.00916034
0.00819886
0.00765279
0.00754276
0.00764047
0.00779583
0.00789699
0.00786885
0.00773714
0.00750434
0.00716397
0.00670366
0.00608235
0.0051848
0.00374858
0.00214541
0.00190984
0.00378918
0.00661642
0.00256955
0.00299382
0.00676189
0.00730626
0.00686725
0.00622347
0.00568235
0.0053223
0.0051466
0.00509535
0.00528265
0.00589536
0.0070356
0.00859137
0.0102604
0.0116695
0.0125074
0.0126142
0.012004
0.010853
0.00944971
0.00818491
0.00736926
0.0070067
0.0069647
0.00707914
0.00722974
0.00732259
0.00729301
0.00715756
0.00691836
0.00656686
0.00607237
0.00532379
0.0040499
0.0024018
0.0017857
0.00244761
0.00419386
0.00641499
0.00244537
0.00300368
0.00671195
0.00746443
0.00694946
0.00642852
0.0060018
0.00569422
0.005496
0.00549008
0.00594387
0.00702617
0.00864534
0.0104738
0.0120875
0.0131107
0.0133228
0.0127042
0.0114048
0.00975938
0.00816759
0.00700865
0.00631891
0.00599789
0.00593666
0.00602811
0.00616582
0.00625363
0.00622111
0.00606709
0.00579869
0.00541183
0.00486856
0.00403698
0.00281284
0.00187057
0.00199439
0.00295309
0.00429577
0.0052973
0.00232233
0.00270976
0.00282042
0.00416501
0.00489679
0.00512441
0.00512983
0.00508253
0.0051801
0.00581149
0.00715723
0.00905391
0.0111044
0.0128597
0.013943
0.0141314
0.0133828
0.0118846
0.00993132
0.00806932
0.00660492
0.00561587
0.00505061
0.00480155
0.00474484
0.00478458
0.00484158
0.00484273
0.00473601
0.00450927
0.00419158
0.00380969
0.00337629
0.00286641
0.00228441
0.00192804
0.00223141
0.00319811
0.00442668
0.00543523
0.00227367
0.000963689
0.00173791
0.00266829
0.0034165
0.00428573
0.00575412
0.00791446
0.0103139
0.0125015
0.0141402
0.0149974
0.0149176
0.0139005
0.012054
0.00985857
0.0077776
0.00612065
0.00500918
0.00440038
0.00410905
0.00397569
0.00391132
0.00386422
0.00379271
0.00366325
0.00346738
0.00322261
0.00297497
0.00276131
0.00259614
0.0024698
0.00237163
0.00235827
0.00264001
0.00346786
0.00484175
0.00594614
0.00245049
0.00178739
0.00247326
0.00360167
0.00561252
0.00833204
0.0110507
0.0131483
0.0146627
0.0155848
0.0158495
0.0153349
0.0139153
0.0118029
0.00939907
0.00718034
0.00550815
0.00451855
0.00403768
0.00382019
0.00371974
0.00366905
0.00363187
0.00358159
0.00349862
0.0033782
0.00323721
0.00310617
0.00301211
0.00296529
0.00296111
0.002991
0.00305942
0.00320359
0.00351874
0.00421691
0.00587823
0.00642636
0.00252915
0.00323735
0.00786704
0.00726583
0.00650655
0.00825591
0.0109818
0.0132718
0.0148126
0.015625
0.0158274
0.0155212
0.0146567
0.0131729
0.0111141
0.00874615
0.00657201
0.00507876
0.00429889
0.00395309
0.00381342
0.00377261
0.00378125
0.00380791
0.00382739
0.00382214
0.0037877
0.00373467
0.0036825
0.0036475
0.00363838
0.00365755
0.00370529
0.0037875
0.00392462
0.00416097
0.0045764
0.00534248
0.00722799
0.00733495
0.00260328
0.00309495
0.00598363
0.0077349
0.0098993
0.0109856
0.0120972
0.0127379
0.0128854
0.0126344
0.0120526
0.011164
0.00997058
0.00851308
0.00694958
0.0055518
0.00453129
0.00392848
0.00361516
0.00347733
0.00345227
0.00350325
0.00359999
0.00371266
0.00381441
0.00388777
0.00392986
0.00395157
0.00396919
0.00399453
0.00403084
0.00407873
0.00414247
0.00423713
0.00439124
0.00464303
0.00503001
0.00561578
0.00685502
0.00770389
0.00264762
0.00289531
0.00248105
0.00246871
0.00254056
0.00259974
0.00252172
0.00237175
0.00219834
0.00202578
0.00186198
0.00170733
0.00156231
0.00143275
0.00133031
0.00126648
0.00123834
0.001232
0.00123952
0.00125542
0.00127592
0.00129831
0.00132077
0.00134229
0.00136265
0.00138229
0.00140224
0.00142384
0.0014485
0.00147769
0.0015133
0.00155817
0.00161673
0.00169465
0.00179721
0.0019266
0.00208062
0.00225448
0.00244235
0.00263003
0.00245458
)
;

boundaryField
{
    floor
    {
        type            compressible::alphatWallFunction;
        Prt             0.85;
        value           nonuniform List<scalar> 
36
(
0.000219889
0.000104493
0.000149914
0.000151104
0.000147495
0.00014144
0.000133312
0.000125156
0.000117584
0.000110704
0.000104491
9.89185e-05
9.38822e-05
8.92676e-05
8.49361e-05
8.06963e-05
7.62359e-05
7.25114e-05
6.49275e-05
6.49266e-05
8.41327e-05
9.63687e-05
0.000106429
0.000127292
0.000168861
0.000160973
0.000219887
0.000239682
0.000229074
0.000219731
0.000104491
0.000219728
0.000186275
0.000266672
0.000232733
0.000265704
)
;
    }
    ceiling
    {
        type            compressible::alphatWallFunction;
        Prt             0.85;
        value           nonuniform List<scalar> 
43
(
0.00039125
0.00033895
0.000337385
0.000346529
0.000354048
0.000344178
0.000325083
0.000302831
0.000280497
0.000259106
0.000238724
0.00021943
0.000202024
0.000188128
0.000179393
0.000175523
0.000174641
0.000175666
0.000177847
0.00018066
0.000183732
0.000186812
0.000189759
0.000192541
0.00019522
0.000197931
0.000200857
0.000204186
0.000208112
0.000212877
0.000218851
0.000226599
0.000236858
0.000250305
0.000267201
0.000287221
0.000309684
0.000333778
0.000357663
0.00033536
0.000368254
0.000382164
0.000248617
)
;
    }
    sWall
    {
        type            compressible::alphatWallFunction;
        Prt             0.85;
        value           nonuniform List<scalar> 9(0.000507605 0.000477895 0.00043823 0.00040229 0.000403509 0.000366679 0.000431904 0.000414297 0.000389499);
    }
    nWall
    {
        type            compressible::alphatWallFunction;
        Prt             0.85;
        value           nonuniform List<scalar> 
14
(
0.000160525
0.00019063
0.000223943
0.000332831
0.000337195
0.00034928
0.000333469
0.000317811
0.000311902
0.000334667
0.000344466
0.000353752
0.000359158
0.000334669
)
;
    }
    sideWalls
    {
        type            empty;
    }
    glass1
    {
        type            compressible::alphatWallFunction;
        Prt             0.85;
        value           nonuniform List<scalar> 9(0.000143925 0.00020913 0.000262683 0.000313286 0.000362354 0.000409973 0.000457979 0.000498836 0.000511208);
    }
    glass2
    {
        type            compressible::alphatWallFunction;
        Prt             0.85;
        value           nonuniform List<scalar> 2(0.000289828 0.000323297);
    }
    sun
    {
        type            compressible::alphatWallFunction;
        Prt             0.85;
        value           nonuniform List<scalar> 
14
(
0.000147959
0.000157645
0.000157092
0.000163764
0.000169851
0.000175358
0.000180466
0.000185376
0.000190302
0.00019552
0.00020048
0.000205177
0.000209791
0.00021474
)
;
    }
    Table_master
    {
        type            compressible::alphatWallFunction;
        Prt             0.85;
        value           nonuniform List<scalar> 9(0.000190996 0.000166812 0.000147882 0.000132875 0.000120792 0.000110935 0.000102818 9.61575e-05 9.09261e-05);
    }
    Table_slave
    {
        type            compressible::alphatWallFunction;
        Prt             0.85;
        value           nonuniform List<scalar> 9(0.000216365 0.000197586 0.000182908 0.000170602 0.000160035 0.000150476 0.000141399 0.000132315 0.000122416);
    }
    inlet
    {
        type            fixedValue;
        value           uniform 1.94e-05;
    }
    outlet
    {
        type            zeroGradient;
    }
}


// ************************************************************************* //
