/*--------------------------------*- C++ -*----------------------------------*\
  =========                 |
  \\      /  F ield         | OpenFOAM: The Open Source CFD Toolbox
   \\    /   O peration     | Website:  https://openfoam.org
    \\  /    A nd           | Version:  6
     \\/     M anipulation  |
\*---------------------------------------------------------------------------*/
FoamFile
{
    version     2.0;
    format      ascii;
    class       volScalarField;
    location    "3700";
    object      alphat;
}
// * * * * * * * * * * * * * * * * * * * * * * * * * * * * * * * * * * * * * //

dimensions      [1 -1 -1 0 0 0 0];

internalField   nonuniform List<scalar> 
458
(
0.00124408
0.00135521
0.00138589
0.00145221
0.00151329
0.00157113
0.00162902
0.00168776
0.00173581
0.00176602
0.00176947
0.00173739
0.0016587
0.00149208
0.00113177
0.00055911
0.000655495
0.000743186
0.000774893
0.000762748
0.000713769
0.000659576
0.000611089
0.000569081
0.000532601
0.000500746
0.000472862
0.000448143
0.00042563
0.000404276
0.000382833
0.000370089
0.000340107
0.00167645
0.00377492
0.00348187
0.00398953
0.00449568
0.00501636
0.00548326
0.00584458
0.00621587
0.00656354
0.00684258
0.00701229
0.00702815
0.00678345
0.00551345
0.00149401
0.00123944
0.00101118
0.000554583
0.00131633
0.00191864
0.00238494
0.00253226
0.00184541
0.00155791
0.00136222
0.00121785
0.00110722
0.00101949
0.000943848
0.00087271
0.000801704
0.000738276
0.000684997
0.000837924
0.000447126
0.00203693
0.00507247
0.00418648
0.00510444
0.00549023
0.00576095
0.0059692
0.00616148
0.00642922
0.00675512
0.00711127
0.00746015
0.00773528
0.00783173
0.00737932
0.0060142
0.004558
0.00119424
0.000854348
0.00147432
0.0021455
0.00281318
0.00300377
0.000959295
0.000839852
0.000740457
0.000659957
0.000594996
0.000542351
0.000499557
0.000464952
0.000438034
0.000485434
0.000562179
0.000983088
0.000528393
0.00238386
0.00647855
0.00407213
0.00528806
0.00549889
0.00547773
0.00545817
0.00555047
0.00576834
0.00609097
0.0065009
0.00695773
0.00735737
0.00760848
0.00755136
0.00716083
0.00614561
0.00337393
0.00137577
0.00175206
0.00240866
0.00321264
0.00390904
0.00394318
0.00108037
0.000990272
0.000928898
0.000883598
0.000845294
0.000807275
0.000771141
0.000732965
0.000688347
0.000648479
0.000639018
0.00117166
0.000608547
0.00273782
0.00836908
0.00427094
0.0050193
0.00532084
0.00514067
0.00499392
0.00507759
0.00530771
0.00564383
0.00608631
0.00658731
0.00697908
0.00717359
0.00716842
0.00703149
0.00662614
0.00547916
0.00496579
0.00500185
0.0052932
0.00564022
0.00585286
0.00575651
0.0049113
0.00447658
0.00423663
0.00406489
0.00389111
0.00366727
0.00328719
0.00279773
0.00224095
0.00170477
0.0012787
0.00119126
0.00103414
0.000813336
0.000860759
0.000935587
0.00311664
0.0104979
0.00584873
0.00464676
0.00506425
0.00505355
0.00486641
0.00493561
0.00517095
0.00550757
0.0059564
0.00643718
0.00679977
0.0069147
0.00680418
0.00664703
0.00657626
0.00648191
0.00667693
0.00701505
0.00725202
0.00729357
0.00713317
0.00679855
0.00633163
0.0059522
0.00565641
0.00539602
0.00514075
0.00486993
0.00451963
0.00403961
0.00343239
0.00274553
0.00210979
0.0015298
0.00125747
0.00109686
0.00138114
0.000970513
0.00348952
0.0121018
0.008724
0.00570946
0.00496854
0.0050398
0.00510369
0.00514052
0.00527419
0.00557155
0.00601368
0.0064903
0.00682271
0.00685874
0.0066491
0.00649808
0.00674765
0.00730057
0.00786347
0.00818111
0.00818171
0.00790892
0.0074467
0.00688455
0.00632522
0.00587499
0.0055341
0.00525775
0.0050161
0.00479911
0.00460167
0.0043436
0.00391899
0.00335237
0.00276345
0.00219744
0.00182802
0.00167466
0.00159619
0.00115309
0.00357901
0.0112159
0.0095271
0.00799789
0.00682806
0.00630988
0.00582343
0.00549387
0.00549005
0.00577432
0.00623178
0.00670253
0.00698181
0.00691635
0.00665972
0.00672355
0.00743663
0.00802161
0.00832584
0.00831138
0.00798057
0.00740882
0.00670459
0.00599541
0.00540642
0.00499371
0.0047154
0.00451545
0.00436768
0.00426804
0.00422384
0.00422569
0.00411257
0.0037758
0.00344729
0.00326424
0.00334405
0.00353014
0.00419298
0.00178523
0.00350477
0.00423041
0.0046753
0.00492486
0.00496213
0.00488889
0.00489241
0.00510058
0.00552044
0.00605417
0.00659957
0.00702846
0.00716518
0.00691726
0.00684659
0.00720809
0.00762625
0.00776942
0.00766545
0.00730208
0.00669376
0.00594207
0.00519269
0.00457761
0.0041523
0.00388144
0.00369973
0.00356168
0.00344396
0.00333336
0.00321986
0.00309522
0.00298224
0.00288463
0.00281983
0.00278317
0.00271362
0.00257062
0.00239691
0.00166668
0.00157967
0.00276076
0.00377678
0.00457239
0.00530116
0.0060102
0.00657169
0.00694705
0.00719052
0.00722428
0.0069856
0.00669678
0.00669734
0.00681711
0.00672527
0.00645433
0.0060272
0.00545219
0.00479043
0.00414437
0.00363021
0.00328403
0.00307182
0.00294169
0.00285518
0.00279217
0.00274382
0.0027081
0.00268803
0.00269431
0.00271003
0.00272406
0.00272479
0.00268154
0.00254855
0.00231431
0.00202416
0.00134113
0.00238088
0.00465364
0.00595101
0.00679147
0.00744512
0.00749531
0.0071034
0.00670984
0.00637238
0.00573417
0.00528025
0.00517419
0.00510236
0.00490246
0.00460137
0.00422824
0.00379059
0.00333046
0.00291575
0.00259315
0.00237086
0.00224274
0.00218275
0.00216988
0.00219126
0.0022385
0.0023045
0.00238085
0.00247006
0.0025728
0.00268261
0.00279048
0.00287822
0.00292209
0.00288122
0.00284551
0.00261981
0.00135857
0.00249156
0.00255347
0.00260944
0.00289324
0.00272908
0.00241442
0.00203368
0.00172835
0.00154177
0.00136495
0.00120949
0.0010879
0.000984976
0.000906968
0.000852736
0.000813121
0.000781265
0.000753854
0.000731224
0.000715956
0.000710262
0.000714546
0.000727231
0.00074588
0.000769444
0.000797368
0.000829471
0.000865999
0.000907529
0.000955353
0.00100974
0.00107031
0.00113738
0.00121126
0.00129197
0.00138869
0.00143099
0.00140165
0.00130371
0.00120559
)
;

boundaryField
{
    floor
    {
        type            compressible::alphatWallFunction;
        Prt             0.85;
        value           nonuniform List<scalar> 
36
(
0.000160683
7.82017e-05
9.26099e-05
0.000105495
0.000110108
0.000108344
0.000101195
9.32149e-05
8.60073e-05
7.9706e-05
7.41871e-05
6.93295e-05
6.50456e-05
6.12213e-05
5.77149e-05
5.4367e-05
5.09824e-05
4.89594e-05
4.41639e-05
4.41633e-05
6.1064e-05
7.35487e-05
8.56292e-05
0.00011568
0.000122504
0.000133176
0.000160681
0.000210146
0.000175549
0.000143834
7.82008e-05
0.000143833
7.75171e-05
0.000169325
0.000121569
0.000194169
)
;
    }
    ceiling
    {
        type            compressible::alphatWallFunction;
        Prt             0.85;
        value           nonuniform List<scalar> 
43
(
0.000340269
0.000348133
0.000355228
0.000391035
0.000370452
0.000330577
0.000281561
0.00024153
0.000216689
0.000192834
0.000171568
0.000154717
0.000140282
0.000129224
0.000121471
0.000115771
0.000111162
0.000107179
0.000103878
0.000101643
0.000100809
0.000101437
0.000103294
0.000106018
0.000109447
0.000113495
0.000118128
0.000123374
0.000129306
0.000136098
0.000143774
0.000152267
0.000161606
0.000171819
0.000182897
0.00019607
0.000201799
0.000197829
0.000184504
0.000171043
0.000467119
0.000555337
0.000326058
)
;
    }
    sWall
    {
        type            compressible::alphatWallFunction;
        Prt             0.85;
        value           uniform 0.000339026;
    }
    nWall
    {
        type            compressible::alphatWallFunction;
        Prt             0.85;
        value           nonuniform List<scalar> 6(0.000132957 0.000137898 0.000163425 0.000189266 0.000191637 0.000170702);
    }
    sideWalls
    {
        type            empty;
    }
    glass1
    {
        type            compressible::alphatWallFunction;
        Prt             0.85;
        value           nonuniform List<scalar> 9(0.000171655 0.000229167 0.000275988 0.000320298 0.000364869 0.000411952 0.000457759 0.000468815 0.000459996);
    }
    glass2
    {
        type            compressible::alphatWallFunction;
        Prt             0.85;
        value           nonuniform List<scalar> 2(0.000247083 0.000231539);
    }
    sun
    {
        type            compressible::alphatWallFunction;
        Prt             0.85;
        value           nonuniform List<scalar> 
14
(
0.000176205
0.000191374
0.000195541
0.000204514
0.000212738
0.000220491
0.000228219
0.000236031
0.000242397
0.000246389
0.000246845
0.000242605
0.000232168
0.000209885
)
;
    }
    Table_master
    {
        type            compressible::alphatWallFunction;
        Prt             0.85;
        value           nonuniform List<scalar> 9(0.00013667 0.000119635 0.00010524 9.34099e-05 8.37353e-05 7.57992e-05 6.92774e-05 6.39521e-05 5.9775e-05);
    }
    Table_slave
    {
        type            compressible::alphatWallFunction;
        Prt             0.85;
        value           nonuniform List<scalar> 9(0.000153689 0.000141049 0.000132363 0.000125908 0.00012042 0.000114943 0.00010971 0.000104148 9.76032e-05);
    }
    inlet
    {
        type            fixedValue;
        value           uniform 1.94e-05;
    }
    outlet
    {
        type            zeroGradient;
    }
}


// ************************************************************************* //
