/*--------------------------------*- C++ -*----------------------------------*\
  =========                 |
  \\      /  F ield         | OpenFOAM: The Open Source CFD Toolbox
   \\    /   O peration     | Website:  https://openfoam.org
    \\  /    A nd           | Version:  6
     \\/     M anipulation  |
\*---------------------------------------------------------------------------*/
FoamFile
{
    version     2.0;
    format      ascii;
    class       volScalarField;
    location    "3700";
    object      nut;
}
// * * * * * * * * * * * * * * * * * * * * * * * * * * * * * * * * * * * * * //

dimensions      [0 2 -1 0 0 0 0];

internalField   nonuniform List<scalar> 
458
(
0.0010694
0.00116385
0.00119015
0.00124709
0.00129953
0.00134918
0.00139887
0.0014493
0.00149052
0.00151642
0.00151934
0.00149177
0.00142423
0.00128122
0.00097197
0.000480389
0.000563162
0.000638484
0.000665738
0.000655318
0.000613249
0.000566698
0.000525048
0.000488963
0.000457626
0.000430263
0.000406311
0.000385078
0.000365739
0.000347395
0.000328976
0.000318032
0.00029229
0.00144198
0.00324232
0.00299037
0.00342638
0.00386111
0.0043083
0.00470926
0.00501949
0.00533811
0.00563627
0.00587543
0.00602085
0.00603448
0.00582465
0.0047345
0.00128297
0.0010644
0.000868435
0.00047652
0.00113086
0.00164828
0.00204893
0.00217556
0.00158548
0.00133848
0.00117036
0.00104633
0.000951286
0.000875922
0.000810935
0.000749821
0.00068882
0.000634333
0.000588569
0.000719996
0.00038425
0.00175321
0.00435754
0.00359595
0.00438457
0.00471616
0.00494887
0.00512783
0.00529295
0.0055225
0.00580158
0.00610648
0.00640539
0.00664156
0.00672479
0.00633678
0.00516472
0.00391431
0.00102565
0.000734004
0.00126657
0.00184318
0.00241689
0.00258079
0.00082421
0.000721588
0.00063619
0.000567027
0.000511213
0.000465983
0.000429215
0.000399484
0.000376357
0.00041709
0.00048304
0.000844725
0.00045409
0.00205323
0.00556665
0.00349819
0.00454302
0.0047246
0.00470685
0.00469034
0.00476967
0.00495624
0.00523212
0.00558273
0.005974
0.00631701
0.00653318
0.00648475
0.00614972
0.00527797
0.00289768
0.00118161
0.00150489
0.00206904
0.00275997
0.00335863
0.0033883
0.000928418
0.000851035
0.000798326
0.000759423
0.000726524
0.000693862
0.000662816
0.000630011
0.000591663
0.000557344
0.00054916
0.00100685
0.000522988
0.00235968
0.00719301
0.00366947
0.00431268
0.00457242
0.00441832
0.00429281
0.0043649
0.00456181
0.00484885
0.00522698
0.00565591
0.00599216
0.00615985
0.00615625
0.00603921
0.00569125
0.00470619
0.00426545
0.00429678
0.00454759
0.00484634
0.0050297
0.00494746
0.00422144
0.00384805
0.00364198
0.00349449
0.00334519
0.00315279
0.00282603
0.0024052
0.00192648
0.00146543
0.00109906
0.00102379
0.000888768
0.000699212
0.000740174
0.000804525
0.00268783
0.00902586
0.00502608
0.00399306
0.0043524
0.00434405
0.00418421
0.00424408
0.00444515
0.00473218
0.00511547
0.00552692
0.00583814
0.00593772
0.00584397
0.00570983
0.00564945
0.0055686
0.00573653
0.00602764
0.00623203
0.00626855
0.00613146
0.00584446
0.00544353
0.00511765
0.00486355
0.0046398
0.00442038
0.00418751
0.00388622
0.00347335
0.00295111
0.00236039
0.00181364
0.00131491
0.00108078
0.000942861
0.00118734
0.000834447
0.00301101
0.0104106
0.00750065
0.004908
0.0042712
0.0043331
0.00438921
0.00442091
0.0045341
0.00478694
0.00516419
0.0055721
0.00585772
0.00589003
0.0057116
0.00558304
0.00579815
0.0062737
0.00675799
0.0070317
0.00703304
0.00679934
0.00640265
0.00591984
0.00543924
0.00505231
0.00475929
0.0045217
0.00431389
0.00412723
0.00395731
0.00373519
0.00336986
0.00288242
0.00237583
0.00188902
0.00157134
0.00143955
0.00137216
0.000991352
0.00309066
0.00966353
0.0082031
0.00688317
0.00587494
0.00542888
0.00501053
0.00472532
0.00471881
0.00495959
0.00534996
0.00575338
0.00599429
0.0059403
0.00572211
0.00577845
0.00639221
0.00689558
0.00715767
0.0071459
0.00686215
0.00637111
0.00576597
0.00515637
0.00464999
0.00429513
0.00405579
0.00388381
0.00375668
0.0036709
0.00363278
0.0036342
0.00353671
0.00324688
0.00296418
0.00280658
0.00287508
0.00303514
0.00360528
0.00153578
0.0030299
0.00365339
0.0040343
0.00424626
0.0042757
0.00421072
0.00421089
0.00438511
0.00474092
0.00519571
0.00566272
0.00603206
0.0061525
0.00594291
0.00588503
0.00619708
0.00655727
0.00668083
0.00659187
0.00627985
0.0057571
0.00511091
0.00446655
0.0039376
0.00357182
0.00333884
0.00318253
0.00306375
0.00296245
0.00286728
0.00276961
0.00266238
0.00256521
0.00248129
0.00242566
0.00239431
0.00233475
0.00221199
0.00206271
0.00143461
0.00133528
0.00234708
0.00322219
0.00390675
0.00453186
0.00514108
0.00562555
0.00595219
0.00616666
0.0062012
0.00600181
0.00575701
0.00575905
0.00586275
0.00578415
0.00555142
0.00518431
0.00468994
0.00412087
0.00356522
0.00312298
0.0028252
0.00264266
0.00253071
0.00245629
0.00240208
0.00236047
0.00232975
0.00231248
0.00231791
0.00233146
0.00234359
0.00234433
0.00230728
0.00219305
0.00199167
0.00174211
0.00115433
0.00201499
0.00395729
0.00507488
0.00580013
0.0063651
0.00641529
0.00608721
0.00575718
0.00547364
0.00492872
0.00454043
0.00445018
0.00438884
0.00421714
0.00395831
0.00363746
0.00326106
0.00286528
0.00250854
0.00223101
0.00203978
0.00192956
0.00187796
0.00186688
0.00188529
0.00192593
0.00198272
0.00204841
0.00212518
0.00221358
0.00230809
0.00240095
0.00247652
0.00251439
0.00247937
0.00244882
0.00225458
0.0011693
0.00211914
0.0021715
0.00221907
0.00246888
0.00233372
0.00206824
0.00174485
0.00148453
0.00132511
0.00117365
0.00104026
0.000935822
0.000847367
0.000780304
0.000733674
0.000699607
0.000672212
0.000648637
0.000629172
0.000616039
0.000611143
0.000614829
0.000625745
0.00064179
0.000662065
0.000686091
0.000713713
0.000745142
0.000780876
0.000822025
0.000868824
0.000920946
0.000978658
0.00104223
0.0011117
0.00119496
0.0012314
0.00120619
0.00112192
0.00103762
)
;

boundaryField
{
    floor
    {
        type            nutkWallFunction;
        Cmu             0.09;
        kappa           0.41;
        E               9.8;
        value           nonuniform List<scalar> 
36
(
0.000117415
5.72038e-05
6.77281e-05
7.71402e-05
8.05118e-05
7.92247e-05
7.40026e-05
6.81731e-05
6.29076e-05
5.83038e-05
5.42713e-05
5.07219e-05
4.75915e-05
4.47967e-05
4.22341e-05
3.97871e-05
3.73132e-05
3.58347e-05
3.233e-05
3.23299e-05
4.46866e-05
5.38133e-05
6.26449e-05
8.46299e-05
8.96381e-05
9.74411e-05
0.000117415
0.00015352
0.000128266
0.000105117
5.72038e-05
0.000105117
5.67064e-05
0.000123731
8.88863e-05
0.000141876
)
;
    }
    ceiling
    {
        type            nutkWallFunction;
        Cmu             0.09;
        kappa           0.41;
        E               9.8;
        value           nonuniform List<scalar> 
43
(
0.000246188
0.000251842
0.000256969
0.000283773
0.000269378
0.000240784
0.000205393
0.000176377
0.000158332
0.000140959
0.000125446
0.000113141
0.000102595
9.45132e-05
8.88459e-05
8.46785e-05
8.13097e-05
7.83976e-05
7.59835e-05
7.43497e-05
7.37394e-05
7.41989e-05
7.55575e-05
7.75494e-05
8.00578e-05
8.30185e-05
8.64069e-05
9.02435e-05
9.45824e-05
9.955e-05
0.000105164
0.000111376
0.000118207
0.000125678
0.000133783
0.000143421
0.000147617
0.000144716
0.000134971
0.000125139
0.000343193
0.000407608
0.000234819
)
;
    }
    sWall
    {
        type            nutkWallFunction;
        Cmu             0.09;
        kappa           0.41;
        E               9.8;
        value           uniform 0.000246255;
    }
    nWall
    {
        type            nutkWallFunction;
        Cmu             0.09;
        kappa           0.41;
        E               9.8;
        value           nonuniform List<scalar> 6(9.74417e-05 0.000101045 0.000119707 0.000138739 0.000140471 0.000125146);
    }
    sideWalls
    {
        type            empty;
    }
    glass1
    {
        type            nutkWallFunction;
        Cmu             0.09;
        kappa           0.41;
        E               9.8;
        value           nonuniform List<scalar> 9(0.000128958 0.00017181 0.000206643 0.000239581 0.000272694 0.000307648 0.00034164 0.000349968 0.000343641);
    }
    glass2
    {
        type            nutkWallFunction;
        Cmu             0.09;
        kappa           0.41;
        E               9.8;
        value           nonuniform List<scalar> 2(0.000182232 0.00017084);
    }
    sun
    {
        type            nutkWallFunction;
        Cmu             0.09;
        kappa           0.41;
        E               9.8;
        value           nonuniform List<scalar> 
14
(
0.000128854
0.000139823
0.00014286
0.000149409
0.000155412
0.00016107
0.00016671
0.00017241
0.000177054
0.000179964
0.000180291
0.000177194
0.000169578
0.000153319
)
;
    }
    Table_master
    {
        type            nutkWallFunction;
        Cmu             0.09;
        kappa           0.41;
        E               9.8;
        value           nonuniform List<scalar> 9(9.98119e-05 8.73713e-05 7.68582e-05 6.82189e-05 6.11534e-05 5.53577e-05 5.05947e-05 4.67057e-05 4.36552e-05);
    }
    Table_slave
    {
        type            nutkWallFunction;
        Cmu             0.09;
        kappa           0.41;
        E               9.8;
        value           nonuniform List<scalar> 9(0.00011226 0.000103033 9.66924e-05 9.19808e-05 8.7974e-05 8.39748e-05 8.01525e-05 7.60903e-05 7.13091e-05);
    }
    inlet
    {
        type            calculated;
        value           uniform 0.000167705;
    }
    outlet
    {
        type            calculated;
        value           nonuniform List<scalar> 2(0.00211914 0.0021715);
    }
}


// ************************************************************************* //
