/*--------------------------------*- C++ -*----------------------------------*\
  =========                 |
  \\      /  F ield         | OpenFOAM: The Open Source CFD Toolbox
   \\    /   O peration     | Website:  https://openfoam.org
    \\  /    A nd           | Version:  6
     \\/     M anipulation  |
\*---------------------------------------------------------------------------*/
FoamFile
{
    version     2.0;
    format      ascii;
    class       volScalarField;
    location    "2740";
    object      epsilon;
}
// * * * * * * * * * * * * * * * * * * * * * * * * * * * * * * * * * * * * * //

dimensions      [0 2 -3 0 0 0 0];

internalField   nonuniform List<scalar> 
458
(
0.000432798
0.000557902
0.000596576
0.000686362
0.000776642
0.00086911
0.000968691
0.00107727
0.00117183
0.00123398
0.00124113
0.00117477
0.00102228
0.000744215
0.000324955
3.92313e-05
6.32042e-05
9.21073e-05
0.000104413
9.95865e-05
8.16114e-05
6.44023e-05
5.12202e-05
4.13696e-05
3.39143e-05
2.81871e-05
2.37378e-05
2.02074e-05
1.73133e-05
1.48367e-05
1.25996e-05
1.13836e-05
8.83705e-06
0.00106104
0.00158339
0.000518434
0.000502606
0.000518444
0.000550912
0.00060625
0.000688441
0.000779677
0.000853892
0.000881983
0.000847751
0.000756842
0.000623972
0.000502
0.00074734
0.00042675
0.00023178
3.82919e-05
7.53638e-05
9.27343e-05
9.34155e-05
8.97163e-05
9.00213e-05
7.05487e-05
5.34853e-05
4.08e-05
3.15318e-05
2.47368e-05
1.97192e-05
1.59648e-05
1.31663e-05
1.14044e-05
1.06881e-05
3.04929e-05
2.00764e-05
0.00190708
0.00384809
0.000603742
0.000458269
0.000466002
0.000508128
0.000580415
0.0006836
0.000797053
0.000884284
0.000917952
0.000887862
0.000801947
0.000667135
0.000517602
0.000416379
0.000353028
0.00038185
0.00013994
0.000139209
0.000125555
0.000111495
0.000103501
0.000198143
0.000132963
9.1124e-05
6.45185e-05
4.72806e-05
3.58086e-05
2.79838e-05
2.25621e-05
1.88663e-05
1.48265e-05
1.31276e-05
6.48829e-05
3.31352e-05
0.00306303
0.0079946
0.000903787
0.000438969
0.000429207
0.000481216
0.000574927
0.000717886
0.000862587
0.000957953
0.000989187
0.000952877
0.000855221
0.000703323
0.000548502
0.000432349
0.000365851
0.000380495
0.00058386
0.000375818
0.000245149
0.000178256
0.000140448
0.000122974
0.000283223
0.000218146
0.000180075
0.000155013
0.000135728
0.000118226
0.000103055
8.84975e-05
7.33003e-05
4.53961e-05
2.92889e-05
0.000114643
5.06233e-05
0.00464969
0.014428
0.00174036
0.000470841
0.000395597
0.000451564
0.000588846
0.00083276
0.00101848
0.00111179
0.00112831
0.00106919
0.00093741
0.000753706
0.000564854
0.000420055
0.000331652
0.000302675
0.000303803
0.000253579
0.000209356
0.000175094
0.000146275
0.000122048
0.000113044
0.000103795
9.75236e-05
9.21805e-05
8.61865e-05
7.87598e-05
7.08776e-05
6.31504e-05
5.58977e-05
4.60254e-05
3.61877e-05
7.47612e-05
0.000114601
0.000120972
0.000143505
0.000184282
0.00687176
0.021736
0.00400166
0.000790695
0.000465066
0.000474026
0.000700653
0.00111978
0.00130613
0.00136578
0.00134345
0.001246
0.00106712
0.000825178
0.000577603
0.000388694
0.000278793
0.00023849
0.000228192
0.000218205
0.000201101
0.000176732
0.000149266
0.000123729
0.000107305
0.000100889
9.97325e-05
9.93308e-05
9.71941e-05
9.16572e-05
8.17049e-05
7.04432e-05
5.97988e-05
5.01414e-05
4.34351e-05
5.55239e-05
8.83481e-05
0.00010613
0.000206707
0.000205618
0.00965985
0.0261946
0.00879569
0.0028005
0.00145413
0.00114091
0.00148295
0.00172651
0.00178591
0.00174904
0.00164966
0.00148331
0.00122981
0.000908027
0.00058818
0.00035585
0.000234455
0.000200172
0.000202333
0.00020298
0.000190002
0.000166823
0.000141308
0.00012018
0.000109049
0.000108535
0.00011365
0.000120141
0.000125716
0.000128166
0.000124085
0.000111074
9.74768e-05
8.5922e-05
8.0434e-05
8.87117e-05
0.000120573
0.000176762
0.000327313
0.000344784
0.0104473
0.0300995
0.0160957
0.0096528
0.00597012
0.00418052
0.00338357
0.00287601
0.00253816
0.00228116
0.00203898
0.00176082
0.0013971
0.000968308
0.00056131
0.000300447
0.000190365
0.000174365
0.000179618
0.000177102
0.000162191
0.000141943
0.000124114
0.000113525
0.000112222
0.000119058
0.000131173
0.00014686
0.000165753
0.000187746
0.000212044
0.000232934
0.000245997
0.000273116
0.000329069
0.000480063
0.000820509
0.00137763
0.00411029
0.00128189
0.00984346
0.0172564
0.0132407
0.00999031
0.00750808
0.00579393
0.00458959
0.00379068
0.00325096
0.0028235
0.00242658
0.00200613
0.00148363
0.000913979
0.000407022
0.000216073
0.00015887
0.000147523
0.00014445
0.000136927
0.000124596
0.000112488
0.000104968
0.000104105
0.000109947
0.000121519
0.000138068
0.0001599
0.000188371
0.00022573
0.000275049
0.000339941
0.000427251
0.000551976
0.000734085
0.000976825
0.00125106
0.00149864
0.00170332
0.00104489
0.00347924
0.00472064
0.00512311
0.0050278
0.00473243
0.00431907
0.00378263
0.00315728
0.00254706
0.00194791
0.00116388
0.000536646
0.000254593
0.000159707
0.000129176
0.000118205
0.000110938
0.000103126
9.54771e-05
8.99897e-05
8.84622e-05
9.13224e-05
9.81807e-05
0.000108632
0.000122683
0.000140911
0.000164565
0.000195768
0.000237994
0.000297015
0.000378476
0.000488606
0.00062998
0.000786507
0.000911378
0.00094487
0.000871251
0.000544328
0.00289519
0.00861994
0.00828039
0.00717135
0.00607363
0.00478836
0.0034775
0.00225651
0.00128265
0.000709965
0.000375261
0.000215445
0.000151303
0.000124226
0.000111148
0.000102259
9.42681e-05
8.7095e-05
8.17462e-05
7.89635e-05
7.90321e-05
8.20626e-05
8.80134e-05
9.70639e-05
0.000109733
0.000126933
0.000150053
0.000181164
0.000223231
0.000280013
0.000356652
0.000458333
0.000585905
0.000728737
0.000842204
0.000956456
0.000733711
0.000565803
0.00336787
0.00362371
0.00386705
0.00532556
0.00449791
0.00313069
0.00187974
0.00115779
0.000823425
0.000572118
0.000398374
0.000290009
0.000215297
0.000168116
0.000139747
0.000121171
0.000107486
9.65683e-05
8.81325e-05
8.27277e-05
8.07705e-05
8.22425e-05
8.67013e-05
9.35439e-05
0.000102693
0.000114284
0.000128657
0.000146408
0.000168491
0.000196551
0.000232071
0.000276396
0.000331685
0.000400618
0.000486185
0.000603813
0.000660764
0.000621001
0.000499732
0.000395349
)
;

boundaryField
{
    floor
    {
        Cmu             0.09;
        kappa           0.41;
        E               9.8;
        type            epsilonWallFunction;
        value           nonuniform List<scalar> 
36
(
0.000324955
3.92313e-05
6.32042e-05
9.21073e-05
0.000104413
9.95865e-05
8.16114e-05
6.44023e-05
5.12202e-05
4.13696e-05
3.39143e-05
2.81871e-05
2.37378e-05
2.02074e-05
1.73133e-05
1.48367e-05
1.25996e-05
1.13836e-05
8.83705e-06
8.83705e-06
2.00764e-05
3.31352e-05
5.06233e-05
0.000120972
0.000143505
0.000184282
0.000324955
0.00074734
0.00042675
0.00023178
3.92313e-05
0.00023178
3.82919e-05
0.00038185
0.00013994
0.00058386
)
;
    }
    ceiling
    {
        Cmu             0.09;
        kappa           0.41;
        E               9.8;
        type            epsilonWallFunction;
        value           nonuniform List<scalar> 
43
(
0.00336787
0.00362371
0.00386705
0.00532556
0.00449791
0.00313069
0.00187974
0.00115779
0.000823425
0.000572118
0.000398374
0.000290009
0.000215297
0.000168116
0.000139747
0.000121171
0.000107486
9.65683e-05
8.81325e-05
8.27277e-05
8.07705e-05
8.22425e-05
8.67013e-05
9.35439e-05
0.000102693
0.000114284
0.000128657
0.000146408
0.000168491
0.000196551
0.000232071
0.000276396
0.000331685
0.000400618
0.000486185
0.000603813
0.000660764
0.000621001
0.000499732
0.000395349
0.00984346
0.0172564
0.00289519
)
;
    }
    sWall
    {
        Cmu             0.09;
        kappa           0.41;
        E               9.8;
        type            epsilonWallFunction;
        value           uniform 0.00336787;
    }
    nWall
    {
        Cmu             0.09;
        kappa           0.41;
        E               9.8;
        type            epsilonWallFunction;
        value           nonuniform List<scalar> 6(0.000184282 0.000205618 0.000344784 0.000544328 0.000565803 0.000395349);
    }
    sideWalls
    {
        type            empty;
    }
    glass1
    {
        Cmu             0.09;
        kappa           0.41;
        E               9.8;
        type            epsilonWallFunction;
        value           nonuniform List<scalar> 9(0.000432798 0.00106104 0.00190708 0.00306303 0.00464969 0.00687176 0.00965985 0.0104473 0.00984346);
    }
    glass2
    {
        Cmu             0.09;
        kappa           0.41;
        E               9.8;
        type            epsilonWallFunction;
        value           nonuniform List<scalar> 2(0.00128189 0.00104489);
    }
    sun
    {
        Cmu             0.09;
        kappa           0.41;
        E               9.8;
        type            epsilonWallFunction;
        value           nonuniform List<scalar> 
14
(
0.000432798
0.000557902
0.000596576
0.000686362
0.000776642
0.00086911
0.000968691
0.00107727
0.00117183
0.00123398
0.00124113
0.00117477
0.00102228
0.000744215
)
;
    }
    Table_master
    {
        Cmu             0.09;
        kappa           0.41;
        E               9.8;
        type            epsilonWallFunction;
        value           nonuniform List<scalar> 9(0.000198143 0.000132963 9.1124e-05 6.45185e-05 4.72806e-05 3.58086e-05 2.79838e-05 2.25621e-05 1.88663e-05);
    }
    Table_slave
    {
        Cmu             0.09;
        kappa           0.41;
        E               9.8;
        type            epsilonWallFunction;
        value           nonuniform List<scalar> 9(0.000283223 0.000218146 0.000180075 0.000155013 0.000135728 0.000118226 0.000103055 8.84975e-05 7.33003e-05);
    }
    inlet
    {
        type            turbulentMixingLengthDissipationRateInlet;
        mixingLength    0.01;
        phi             phi;
        k               k;
        value           uniform 0.000471672;
    }
    outlet
    {
        type            zeroGradient;
    }
}


// ************************************************************************* //
