/*--------------------------------*- C++ -*----------------------------------*\
  =========                 |
  \\      /  F ield         | OpenFOAM: The Open Source CFD Toolbox
   \\    /   O peration     | Website:  https://openfoam.org
    \\  /    A nd           | Version:  6
     \\/     M anipulation  |
\*---------------------------------------------------------------------------*/
FoamFile
{
    version     2.0;
    format      ascii;
    class       volScalarField;
    location    "2740";
    object      k;
}
// * * * * * * * * * * * * * * * * * * * * * * * * * * * * * * * * * * * * * //

dimensions      [0 2 -2 0 0 0 0];

internalField   nonuniform List<scalar> 
458
(
0.00226773
0.002686
0.00280874
0.00308392
0.00334874
0.00360953
0.00388024
0.00416503
0.00440533
0.00455974
0.00457733
0.00441269
0.00402207
0.00325487
0.00187334
0.000457604
0.000628876
0.000808346
0.000878828
0.000851533
0.000745708
0.000636799
0.000546633
0.000474084
0.000415263
0.000367087
0.000327362
0.000294041
0.000265249
0.000239309
0.000214605
0.000200564
0.00016941
0.00412308
0.0075525
0.00415031
0.00437424
0.00471604
0.00513526
0.0056322
0.0061964
0.00680029
0.00731264
0.00758799
0.00753075
0.00712355
0.00635467
0.00513869
0.00326398
0.00224656
0.0014955
0.00045027
0.000973109
0.00130321
0.0014583
0.00147264
0.00125931
0.0010243
0.000833982
0.000688722
0.00057731
0.000490659
0.000421509
0.000364693
0.000317431
0.000283503
0.000264379
0.000493903
0.000292769
0.0060951
0.0136498
0.00491147
0.004725
0.00494154
0.00528586
0.00575059
0.00634051
0.00699342
0.00754999
0.00789191
0.00794919
0.00769285
0.00706028
0.00603683
0.00488811
0.00391836
0.00208607
0.00106831
0.00139967
0.00160351
0.00173029
0.0017227
0.00134706
0.0010325
0.000802583
0.000637565
0.000518231
0.000430586
0.000365319
0.000316462
0.000280883
0.000262129
0.000265438
0.000780375
0.000408878
0.00835928
0.0222367
0.00592698
0.00470718
0.0047467
0.0050166
0.00547373
0.00616801
0.00689216
0.00746256
0.00783324
0.00795298
0.00774775
0.00714526
0.00628659
0.00543526
0.00463196
0.00350005
0.00276869
0.00250681
0.00237399
0.00233802
0.00228939
0.00215168
0.00170931
0.00143626
0.00126387
0.0011437
0.00104676
0.000954721
0.000871193
0.000787086
0.00069418
0.0005302
0.000422746
0.00113249
0.000542377
0.0110412
0.0339576
0.00842364
0.00474991
0.00448305
0.00470824
0.00529961
0.00635505
0.00718493
0.00773939
0.00809487
0.00819692
0.00790008
0.00718228
0.00621584
0.00530901
0.0045795
0.00397828
0.00379452
0.00347936
0.00325239
0.00307051
0.00285905
0.00259012
0.00230259
0.00210654
0.00198652
0.00189183
0.00178979
0.00166103
0.00149184
0.0012991
0.00109385
0.000865677
0.000664758
0.000922198
0.00106384
0.000969449
0.00108637
0.00128348
0.0143256
0.0466888
0.0149489
0.00592288
0.00474238
0.00478325
0.00570729
0.00726659
0.00803169
0.0084741
0.0087383
0.00874728
0.00831983
0.00737838
0.00612416
0.00496578
0.00418329
0.00384132
0.0038137
0.00382276
0.00373157
0.00350844
0.00318889
0.00283455
0.00254757
0.00239515
0.00232155
0.00226296
0.00218489
0.00206506
0.00187828
0.0016488
0.00140027
0.00114674
0.000935565
0.000900674
0.00103002
0.00105444
0.00165137
0.00138073
0.0179769
0.0550463
0.0270748
0.0123584
0.00830732
0.00741152
0.00850417
0.00920914
0.00948543
0.00964513
0.0097292
0.00958303
0.00894663
0.0077088
0.00610963
0.00469835
0.00388641
0.00373545
0.0038978
0.00398223
0.00385318
0.00355
0.00317059
0.00281156
0.00256718
0.00246835
0.00245151
0.00245683
0.00245476
0.00242435
0.00233582
0.00214708
0.00191049
0.00165885
0.00145713
0.00136452
0.0014509
0.00168145
0.00223389
0.0019488
0.018941
0.0568489
0.0383019
0.0271706
0.019741
0.0158798
0.0137247
0.0122881
0.0115359
0.0112118
0.0110092
0.0106094
0.00964613
0.00799444
0.00597385
0.00439202
0.00367695
0.00365496
0.00377945
0.0037498
0.0035165
0.00316979
0.00281983
0.00255033
0.00240793
0.00238367
0.0024313
0.00251746
0.00263032
0.00276724
0.00292555
0.0030669
0.00310916
0.00313893
0.00329207
0.00386911
0.00511968
0.006816
0.0128318
0.00467701
0.018204
0.0264668
0.0243623
0.0217106
0.0188863
0.0164643
0.0146538
0.0135901
0.0130861
0.012767
0.0123561
0.0115953
0.0100706
0.00776862
0.00515897
0.00385721
0.0034022
0.00330919
0.00325264
0.00309098
0.00282313
0.00252747
0.00228241
0.00213418
0.00208889
0.00212324
0.00220959
0.00233308
0.00249007
0.0026817
0.00290935
0.00317117
0.00348968
0.00390098
0.00444799
0.00509776
0.0056969
0.00606903
0.00624816
0.00408114
0.0071849
0.0110953
0.0135431
0.0147731
0.0154366
0.015707
0.0153762
0.0144499
0.0132107
0.0115849
0.00881005
0.00585902
0.00403631
0.00322546
0.00288131
0.00270022
0.00252793
0.00231818
0.00209088
0.00188811
0.00175207
0.00169317
0.00169793
0.00174775
0.00182983
0.0019393
0.00207753
0.00225115
0.00247287
0.00276577
0.00313121
0.00356696
0.00405089
0.00449038
0.00471255
0.00457273
0.00410666
0.00264226
0.00805105
0.0194682
0.0216082
0.0214981
0.0207256
0.018475
0.0153363
0.0120142
0.0088322
0.0062354
0.00435109
0.00326398
0.00271639
0.00241274
0.00221107
0.00203305
0.00184828
0.00166528
0.00150956
0.00139915
0.00133841
0.00132646
0.00135521
0.00141897
0.00151613
0.00164811
0.00181816
0.0020306
0.00229596
0.00262436
0.00302437
0.00349677
0.00401529
0.00451215
0.00481681
0.00510142
0.00428724
0.0027113
0.00890509
0.00935055
0.0097646
0.0120868
0.0107996
0.00848193
0.00603671
0.00437006
0.00348191
0.00273144
0.00214583
0.0017365
0.00142373
0.00120728
0.00106733
0.000970509
0.000895986
0.00083424
0.00078492
0.000752492
0.000740576
0.000749547
0.000776399
0.000816729
0.000869149
0.000933379
0.00101008
0.00110097
0.00120907
0.00133984
0.00149675
0.00168173
0.00189912
0.00215388
0.00245058
0.00283141
0.00300676
0.00288489
0.00249589
0.00213495
)
;

boundaryField
{
    floor
    {
        type            kqRWallFunction;
        value           nonuniform List<scalar> 
36
(
0.00187334
0.000457604
0.000628876
0.000808346
0.000878828
0.000851533
0.000745708
0.000636799
0.000546633
0.000474084
0.000415263
0.000367087
0.000327362
0.000294041
0.000265249
0.000239309
0.000214605
0.000200564
0.00016941
0.00016941
0.000292769
0.000408878
0.000542377
0.000969449
0.00108637
0.00128348
0.00187334
0.00326398
0.00224656
0.0014955
0.000457604
0.0014955
0.00045027
0.00208607
0.00106831
0.00276869
)
;
    }
    ceiling
    {
        type            kqRWallFunction;
        value           nonuniform List<scalar> 
43
(
0.00890509
0.00935055
0.0097646
0.0120868
0.0107996
0.00848193
0.00603671
0.00437006
0.00348191
0.00273144
0.00214583
0.0017365
0.00142373
0.00120728
0.00106733
0.000970509
0.000895986
0.00083424
0.00078492
0.000752492
0.000740576
0.000749547
0.000776399
0.000816729
0.000869149
0.000933379
0.00101008
0.00110097
0.00120907
0.00133984
0.00149675
0.00168173
0.00189912
0.00215388
0.00245058
0.00283141
0.00300676
0.00288489
0.00249589
0.00213495
0.018204
0.0264668
0.00805105
)
;
    }
    sWall
    {
        type            kqRWallFunction;
        value           uniform 0.00890509;
    }
    nWall
    {
        type            kqRWallFunction;
        value           nonuniform List<scalar> 6(0.00128348 0.00138073 0.0019488 0.00264226 0.0027113 0.00213495);
    }
    sideWalls
    {
        type            empty;
    }
    glass1
    {
        type            kqRWallFunction;
        value           nonuniform List<scalar> 9(0.00226773 0.00412308 0.0060951 0.00835928 0.0110412 0.0143256 0.0179769 0.018941 0.018204);
    }
    glass2
    {
        type            kqRWallFunction;
        value           nonuniform List<scalar> 2(0.00467701 0.00408114);
    }
    sun
    {
        type            kqRWallFunction;
        value           nonuniform List<scalar> 
14
(
0.00226773
0.002686
0.00280874
0.00308392
0.00334874
0.00360953
0.00388024
0.00416503
0.00440533
0.00455974
0.00457733
0.00441269
0.00402207
0.00325487
)
;
    }
    Table_master
    {
        type            kqRWallFunction;
        value           nonuniform List<scalar> 9(0.00134706 0.0010325 0.000802583 0.000637565 0.000518231 0.000430586 0.000365319 0.000316462 0.000280883);
    }
    Table_slave
    {
        type            kqRWallFunction;
        value           nonuniform List<scalar> 9(0.00170931 0.00143626 0.00126387 0.0011437 0.00104676 0.000954721 0.000871193 0.000787086 0.00069418);
    }
    inlet
    {
        type            turbulentIntensityKineticEnergyInlet;
        intensity       0.05;
        value           uniform 0.000937501;
    }
    outlet
    {
        type            zeroGradient;
    }
}


// ************************************************************************* //
