/*--------------------------------*- C++ -*----------------------------------*\
  =========                 |
  \\      /  F ield         | OpenFOAM: The Open Source CFD Toolbox
   \\    /   O peration     | Website:  https://openfoam.org
    \\  /    A nd           | Version:  6
     \\/     M anipulation  |
\*---------------------------------------------------------------------------*/
FoamFile
{
    version     2.0;
    format      ascii;
    class       volScalarField;
    location    "35999.9999983470407";
    object      alphat;
}
// * * * * * * * * * * * * * * * * * * * * * * * * * * * * * * * * * * * * * //

dimensions      [1 -1 -1 0 0 0 0];

internalField   nonuniform List<scalar> 
778
(
0.00104099
0.00111056
0.00110659
0.00115465
0.0011987
0.00123869
0.00127593
0.00131181
0.00134794
0.00138633
0.00142292
0.00145768
0.00149192
0.00152875
0.0015672
0.000736759
0.00105535
0.00106381
0.00103799
0.000994875
0.000937341
0.000880047
0.000827271
0.000779671
0.000736972
0.000698913
0.000664726
0.000633584
0.000604519
0.000576237
0.000546666
0.000522124
0.000472598
0.00152466
0.00300734
0.0026393
0.00304636
0.00334182
0.00365508
0.00396756
0.00425551
0.00448725
0.00462208
0.00470135
0.00466865
0.00443581
0.00385909
0.00281857
0.00171595
0.00163608
0.00156613
0.00131892
0.00224637
0.00311312
0.00362466
0.00364826
0.00287956
0.00246267
0.00217364
0.00195438
0.00178009
0.00163145
0.00149999
0.00137763
0.00125791
0.00115045
0.00105778
0.00119178
0.000599208
0.00193412
0.00419884
0.0031135
0.0044532
0.00497593
0.00541834
0.00582013
0.0061737
0.00647315
0.0067078
0.00693522
0.00717454
0.00739452
0.00752563
0.00743928
0.00681227
0.00498316
0.00192126
0.00166382
0.00355959
0.00496741
0.00563285
0.00512244
0.00135156
0.00117513
0.00103904
0.000932597
0.000847926
0.000779605
0.000723886
0.000678561
0.000643215
0.000707191
0.000831962
0.00131812
0.000681739
0.00232907
0.00565845
0.00297922
0.00500688
0.00578051
0.00619445
0.00649878
0.00672387
0.0068918
0.00702782
0.00722143
0.00754865
0.00802626
0.00862721
0.00923195
0.0095311
0.00895246
0.00668394
0.00191362
0.00442871
0.00659223
0.00769214
0.00796336
0.00679822
0.00153919
0.00139992
0.0012921
0.00120243
0.00112604
0.00105746
0.000992818
0.000928624
0.000859277
0.000802799
0.000832374
0.00142791
0.000750609
0.00271832
0.00749053
0.00300566
0.00475954
0.0059488
0.00630153
0.00642942
0.00643413
0.00637003
0.00631327
0.00639423
0.006712
0.00729529
0.00812177
0.00908109
0.00996587
0.0105279
0.0105228
0.00944439
0.00961001
0.00983188
0.00986387
0.00966355
0.00904482
0.00719782
0.00621714
0.00554539
0.00499974
0.0044645
0.00394602
0.00343881
0.00293238
0.00241232
0.00185283
0.00141359
0.00141335
0.0011179
0.000895544
0.00119234
0.00113773
0.00310126
0.00954074
0.00353838
0.00401352
0.00569949
0.00609066
0.00605891
0.0058404
0.00552829
0.00527099
0.00526519
0.00559797
0.00626226
0.00722013
0.00834204
0.00946425
0.0104194
0.0110304
0.0111428
0.0110322
0.0108376
0.0105608
0.0102042
0.00974992
0.00908696
0.00844826
0.00786839
0.00730787
0.00670255
0.00605624
0.00536609
0.00462638
0.00383249
0.00299015
0.00222698
0.00167196
0.00129837
0.00146483
0.00255993
0.00135822
0.00349204
0.011436
0.00471508
0.00328797
0.00512114
0.00576096
0.00568924
0.00533572
0.00482335
0.004373
0.00436014
0.00478032
0.00554047
0.00661113
0.0078298
0.00903733
0.0100772
0.0108226
0.0111662
0.0111411
0.0108975
0.0105276
0.0101034
0.00968
0.0092703
0.0088943
0.00854102
0.00816381
0.00770803
0.00715954
0.00651045
0.00575786
0.00490474
0.00397242
0.0030599
0.00220939
0.0016267
0.00145974
0.00261009
0.00160579
0.0038278
0.0128687
0.00642786
0.00313057
0.00405689
0.00510757
0.00525327
0.00496246
0.00435758
0.0037447
0.00388365
0.00443948
0.00528987
0.00639321
0.00765937
0.0089233
0.0100016
0.0107511
0.011092
0.0110485
0.0107334
0.010268
0.00976706
0.00932254
0.00897979
0.00873491
0.00854385
0.00833592
0.0080462
0.00764077
0.00710396
0.00643284
0.00563395
0.00473038
0.0037887
0.00283409
0.00197269
0.00133586
0.00381313
0.00212238
0.00392898
0.0121729
0.00795065
0.00404696
0.00274937
0.00337022
0.0039445
0.00399233
0.0035249
0.00342539
0.00378107
0.00443484
0.00535511
0.00652634
0.00785431
0.00915729
0.010231
0.0109213
0.0111635
0.0109968
0.0105392
0.00993899
0.00934333
0.00886791
0.00856614
0.00841817
0.00835121
0.00827145
0.00810478
0.00781176
0.00737695
0.00679899
0.00608534
0.00525421
0.00433914
0.0033065
0.00188494
0.00172765
0.00599917
0.0024137
0.00384946
0.0098103
0.00820756
0.00555313
0.00366753
0.0028395
0.00268989
0.00281705
0.0030532
0.00342955
0.00396427
0.00470085
0.00570338
0.0069683
0.00837011
0.0096916
0.0107078
0.0112653
0.0113212
0.0109438
0.010282
0.00952097
0.00884153
0.00837576
0.00816239
0.00813802
0.008185
0.00818459
0.00807679
0.00783959
0.00746586
0.00695549
0.00631244
0.00554111
0.00462033
0.00329855
0.00141527
0.00328477
0.00557329
0.00244729
0.00360577
0.00838376
0.00793367
0.00635273
0.00488957
0.00393617
0.0034645
0.00335771
0.00355281
0.00391258
0.00443622
0.00521545
0.00632533
0.00771507
0.0091899
0.0104827
0.0113552
0.0116747
0.0114399
0.0107677
0.00985857
0.00894907
0.00825721
0.00790953
0.00787008
0.00798592
0.00810258
0.00810493
0.00799113
0.00776164
0.00741244
0.00693872
0.00633234
0.00556729
0.00454617
0.00301464
0.00154224
0.00347593
0.00608775
0.00246698
0.00328309
0.00755921
0.00765233
0.00672328
0.00572002
0.00496426
0.00451895
0.00435909
0.00439906
0.00461694
0.00509931
0.00597263
0.0072595
0.00880192
0.0103088
0.0114688
0.0120574
0.0119954
0.0113523
0.0103169
0.00916689
0.00820519
0.00765832
0.00754971
0.00764975
0.00780554
0.00790633
0.00787735
0.00774439
0.00751175
0.0071729
0.0067104
0.00608401
0.00520616
0.00391897
0.00240717
0.0018114
0.00371625
0.00628354
0.00260784
0.00299365
0.00676275
0.00730713
0.00686817
0.00622441
0.00568325
0.00532305
0.00514692
0.00509519
0.00528254
0.00589716
0.00704186
0.00860289
0.0102745
0.0116811
0.0125127
0.0126133
0.0120011
0.0108527
0.00945302
0.00818807
0.00737295
0.00701503
0.00698093
0.00709962
0.0072471
0.00733327
0.0073014
0.00716289
0.00692412
0.00657388
0.00607211
0.0053091
0.00410874
0.00262815
0.00186093
0.0022607
0.00431146
0.00638962
0.00266508
0.00300417
0.00671308
0.00746602
0.00695079
0.0064297
0.00600281
0.00569494
0.00549605
0.00548975
0.00594445
0.00703052
0.00865571
0.0104887
0.0121012
0.0131164
0.0133178
0.0126919
0.0113929
0.00975177
0.00816129
0.00700425
0.00632457
0.0060203
0.00597343
0.00606725
0.00619236
0.0062617
0.00622366
0.00606476
0.00579912
0.00540929
0.00482254
0.00388769
0.00265339
0.00186078
0.00200408
0.00289151
0.00453818
0.00615089
0.00250087
0.00271009
0.00282061
0.004165
0.00489668
0.00512403
0.00512908
0.00508133
0.00517859
0.00581034
0.00715911
0.00906208
0.0111187
0.0128745
0.013949
0.0141217
0.0133587
0.0118537
0.00990209
0.00804209
0.00658364
0.00561042
0.00506784
0.00484145
0.00479873
0.00483452
0.00486794
0.00484062
0.0047263
0.00450249
0.00420239
0.00383057
0.00335559
0.00273025
0.00209602
0.00189357
0.00235828
0.00334415
0.00452433
0.00515605
0.00235652
0.000963555
0.00173661
0.00266474
0.00341115
0.00427939
0.00574854
0.0079119
0.0103179
0.0125127
0.0141538
0.015003
0.0149037
0.0138629
0.0120005
0.00979638
0.00771721
0.00607361
0.00498606
0.00440475
0.00413945
0.00402516
0.00396583
0.00390522
0.00380659
0.00365341
0.00345408
0.00323563
0.00301795
0.00282069
0.00263619
0.00244592
0.00227359
0.00228175
0.00271682
0.00363102
0.0047846
0.00582168
0.00233503
0.00178747
0.00246995
0.00359457
0.00560165
0.00832049
0.0110421
0.0131456
0.014667
0.015593
0.015853
0.0153187
0.013864
0.0117146
0.00928896
0.00707084
0.0054244
0.00447466
0.00403626
0.00385632
0.00378209
0.00374112
0.0036958
0.00362514
0.00352315
0.00339999
0.00327659
0.00317207
0.00309368
0.00304061
0.00300576
0.00298659
0.00300151
0.00311178
0.00345069
0.00421363
0.0056264
0.00645638
0.0025451
0.00323797
0.00787482
0.00727039
0.00649992
0.00824104
0.0109643
0.013255
0.0148004
0.01562
0.0158283
0.0155214
0.0146387
0.013115
0.0109929
0.00857838
0.00641599
0.00497953
0.00427373
0.00400066
0.00392102
0.0039176
0.00393482
0.00394259
0.00392582
0.00388291
0.00382335
0.00376179
0.00371094
0.00367811
0.00366653
0.00367832
0.00372019
0.00380593
0.00395281
0.00420731
0.00465599
0.00546333
0.00721699
0.00735143
0.00264174
0.00309503
0.00598125
0.00772135
0.00988529
0.010968
0.0120771
0.0127175
0.0128668
0.012619
0.0120379
0.0111408
0.00992103
0.00841158
0.00678592
0.0053417
0.00436609
0.00385321
0.00364008
0.0035921
0.00363192
0.00371221
0.00379931
0.00386993
0.00391265
0.00392805
0.00392469
0.00391269
0.00389937
0.00389027
0.00389462
0.0039305
0.00402531
0.00421094
0.00451122
0.00495225
0.00552219
0.00630205
0.00764689
0.0077854
0.00272509
0.00289484
0.00248122
0.00246897
0.00254123
0.00260091
0.00252384
0.00237459
0.00220108
0.00202691
0.00185948
0.0016993
0.00154805
0.00141423
0.00131272
0.00125533
0.00123143
0.00122926
0.00123918
0.00125505
0.00127328
0.00129183
0.00130969
0.0013267
0.0013434
0.00136091
0.00138082
0.00140507
0.00143613
0.00147722
0.00153224
0.00160489
0.00169698
0.00180704
0.00193109
0.00206589
0.00221278
0.00236598
0.00252634
0.00268276
0.00252818
)
;

boundaryField
{
    floor
    {
        type            compressible::alphatWallFunction;
        Prt             0.85;
        value           nonuniform List<scalar> 
36
(
0.000219866
0.000104473
0.000149933
0.000151116
0.000147501
0.000141442
0.000133309
0.000125152
0.000117582
0.000110706
0.000104495
9.89228e-05
9.38861e-05
8.92707e-05
8.49382e-05
8.06979e-05
7.62368e-05
7.25119e-05
6.4928e-05
6.49272e-05
8.41446e-05
9.63969e-05
0.000106483
0.000127366
0.000168976
0.000161418
0.000219863
0.000239664
0.000229055
0.000219718
0.000104472
0.000219716
0.000186325
0.000266683
0.000232738
0.000265684
)
;
    }
    ceiling
    {
        type            compressible::alphatWallFunction;
        Prt             0.85;
        value           nonuniform List<scalar> 
43
(
0.000391192
0.000338973
0.000337419
0.000346615
0.000354198
0.000344452
0.000325455
0.000303199
0.000280665
0.000258806
0.000237692
0.00021755
0.000199539
0.000185732
0.000177862
0.000174567
0.000174258
0.000175618
0.000177799
0.000180305
0.000182853
0.000185305
0.000187634
0.000189914
0.000192297
0.000194994
0.000198265
0.000202435
0.000207928
0.000215254
0.000224895
0.000237079
0.000251596
0.00026789
0.000285493
0.000304527
0.000324277
0.000344813
0.000364716
0.000345054
0.000368296
0.000382189
0.000248627
)
;
    }
    sWall
    {
        type            compressible::alphatWallFunction;
        Prt             0.85;
        value           nonuniform List<scalar> 9(0.000507604 0.000477875 0.000438197 0.000402269 0.00040357 0.000366721 0.00043198 0.000414307 0.000389442);
    }
    nWall
    {
        type            compressible::alphatWallFunction;
        Prt             0.85;
        value           nonuniform List<scalar> 
14
(
0.000160969
0.000191216
0.000224538
0.000334116
0.000336705
0.000354657
0.000361545
0.000340596
0.000322203
0.000319901
0.000346562
0.000358724
0.000369207
0.000344359
)
;
    }
    sideWalls
    {
        type            empty;
    }
    glass1
    {
        type            compressible::alphatWallFunction;
        Prt             0.85;
        value           nonuniform List<scalar> 9(0.000143928 0.000209133 0.000262689 0.000313296 0.000362367 0.000409989 0.000458 0.00049886 0.000511221);
    }
    glass2
    {
        type            compressible::alphatWallFunction;
        Prt             0.85;
        value           nonuniform List<scalar> 2(0.000290167 0.00032742);
    }
    sun
    {
        type            compressible::alphatWallFunction;
        Prt             0.85;
        value           nonuniform List<scalar> 
14
(
0.000147962
0.000157649
0.000157095
0.000163767
0.000169852
0.000175357
0.000180463
0.000185369
0.000190292
0.000195506
0.000200463
0.000205156
0.000209768
0.000214716
)
;
    }
    Table_master
    {
        type            compressible::alphatWallFunction;
        Prt             0.85;
        value           nonuniform List<scalar> 9(0.000191038 0.000166846 0.000147902 0.000132885 0.000120795 0.000110935 0.000102818 9.61585e-05 9.09281e-05);
    }
    Table_slave
    {
        type            compressible::alphatWallFunction;
        Prt             0.85;
        value           nonuniform List<scalar> 9(0.000216383 0.00019761 0.000182933 0.00017062 0.000160048 0.000150486 0.000141408 0.000132323 0.000122426);
    }
    inlet
    {
        type            fixedValue;
        value           uniform 1.94e-05;
    }
    outlet
    {
        type            zeroGradient;
    }
}


// ************************************************************************* //
