/*--------------------------------*- C++ -*----------------------------------*\
  =========                 |
  \\      /  F ield         | OpenFOAM: The Open Source CFD Toolbox
   \\    /   O peration     | Website:  https://openfoam.org
    \\  /    A nd           | Version:  6
     \\/     M anipulation  |
\*---------------------------------------------------------------------------*/
FoamFile
{
    version     2.0;
    format      ascii;
    class       volScalarField;
    location    "35999.9999983470407";
    object      nut;
}
// * * * * * * * * * * * * * * * * * * * * * * * * * * * * * * * * * * * * * //

dimensions      [0 2 -1 0 0 0 0];

internalField   nonuniform List<scalar> 
778
(
0.000894313
0.000953082
0.000949623
0.000990849
0.00102863
0.00106293
0.00109487
0.00112565
0.00115663
0.00118955
0.00122092
0.00125071
0.00128006
0.00131161
0.00134455
0.000632234
0.00090524
0.000912475
0.000890327
0.000853348
0.000804008
0.000754875
0.000709616
0.000668797
0.000632181
0.000599543
0.000570226
0.00054352
0.000518596
0.000494342
0.000468984
0.000447942
0.000405495
0.00131078
0.0025812
0.00226508
0.00261441
0.00286799
0.00313683
0.003405
0.0036521
0.00385093
0.00396658
0.00403449
0.00400624
0.00380619
0.00331105
0.00241807
0.00147203
0.00140345
0.00134343
0.0011313
0.0019267
0.00267004
0.00310875
0.00312898
0.0024697
0.00211216
0.00186428
0.00167624
0.00152676
0.00139929
0.00128654
0.0011816
0.00107893
0.000986789
0.000907335
0.00102233
0.000514098
0.00166404
0.00360452
0.00267233
0.00382229
0.00427111
0.00465101
0.00499604
0.00529965
0.00555674
0.00575813
0.00595318
0.00615822
0.00634639
0.00645804
0.00638297
0.00584422
0.00427458
0.00164795
0.00142701
0.00305288
0.00426027
0.00483098
0.00439324
0.00115916
0.00100785
0.000891139
0.000799852
0.000727236
0.000668642
0.000620856
0.000581985
0.000551675
0.000606555
0.000713594
0.00113065
0.000584896
0.00200527
0.00485861
0.0025574
0.00429815
0.00496262
0.00531838
0.00558004
0.00577363
0.00591805
0.00603494
0.00620104
0.00648149
0.00689059
0.00740501
0.00792233
0.00817739
0.0076797
0.00573303
0.00164129
0.00379831
0.0056538
0.00659713
0.00682976
0.0058305
0.00132009
0.00120065
0.00110818
0.00103128
0.000965756
0.000906937
0.000851498
0.000796442
0.000736966
0.000688541
0.000713931
0.0012248
0.000643979
0.00234201
0.00643344
0.00258043
0.00408636
0.00510795
0.00541143
0.00552188
0.00552649
0.00547187
0.00542336
0.00549284
0.00576527
0.00626507
0.00697288
0.0077941
0.00855111
0.00903144
0.00902577
0.00810022
0.00824205
0.0084323
0.00845979
0.00828806
0.00775747
0.00617339
0.00533231
0.00475618
0.00428819
0.00382913
0.00338444
0.00294941
0.00251505
0.002069
0.00158915
0.00121244
0.00121229
0.000959039
0.000768314
0.00102299
0.000976448
0.00267366
0.00819682
0.00303823
0.00344627
0.00489456
0.00523123
0.00520473
0.00501776
0.00475023
0.00452954
0.00452461
0.00481011
0.00537958
0.00620013
0.00716069
0.00812114
0.00893839
0.00946117
0.00955684
0.00946177
0.00929498
0.00905769
0.00875197
0.00836247
0.00779393
0.00724616
0.00674883
0.00626807
0.00574888
0.00519452
0.00460256
0.00396808
0.00328714
0.00256467
0.00191011
0.00143411
0.00111379
0.00125663
0.00219619
0.00116575
0.00301224
0.00982837
0.00404934
0.00282355
0.00439834
0.00494861
0.0048878
0.00458485
0.00414526
0.00375872
0.00374788
0.00410867
0.00476062
0.00567796
0.0067214
0.0077549
0.00864483
0.00928277
0.00957684
0.00955517
0.00934641
0.0090294
0.00866587
0.00830285
0.00795153
0.00762908
0.00732607
0.00700252
0.00661155
0.00614106
0.00558428
0.00493872
0.00420694
0.00340725
0.00262456
0.00189509
0.00139538
0.00125222
0.00223916
0.00137819
0.00330361
0.0110652
0.00552216
0.00268875
0.00348458
0.00438764
0.0045135
0.00426431
0.00374515
0.00321903
0.00333881
0.00381626
0.00454571
0.00549106
0.0065751
0.00765676
0.00857954
0.00922102
0.00951291
0.00947579
0.00920591
0.00880713
0.00837775
0.00799665
0.00770275
0.00749274
0.00732885
0.00715046
0.0069019
0.00655407
0.00609356
0.00551785
0.00483255
0.00405747
0.00324975
0.00243095
0.00169215
0.00114594
0.00327144
0.00182266
0.00339333
0.0104827
0.00683793
0.00347764
0.00236194
0.00289541
0.00338918
0.00343075
0.00302965
0.00294478
0.00325093
0.00381251
0.00460175
0.00560503
0.0067417
0.00785661
0.00877544
0.0093664
0.00957399
0.00943149
0.00903966
0.00852538
0.00801478
0.00760715
0.00734835
0.00722142
0.00716394
0.00709546
0.0069524
0.00670097
0.00632792
0.00583208
0.00521987
0.0045069
0.00372196
0.00283621
0.00161689
0.00148209
0.005148
0.00207397
0.00332457
0.00845677
0.00706649
0.00477636
0.00315268
0.00244033
0.00231169
0.00242117
0.00262474
0.00294895
0.00340888
0.00404121
0.00490045
0.00598339
0.00718282
0.00831339
0.00918307
0.00966067
0.00970913
0.0093864
0.00881961
0.00816741
0.0075849
0.00718546
0.00700241
0.00698144
0.00702165
0.0070212
0.00692861
0.00672504
0.00640436
0.00596648
0.0054148
0.00475311
0.00396325
0.00282946
0.00121406
0.00281924
0.00478587
0.00210294
0.00311421
0.00723042
0.00683516
0.00546843
0.00420644
0.00338513
0.00297912
0.00288737
0.00305564
0.00336539
0.00381517
0.00448309
0.00543324
0.00662217
0.0078836
0.00898964
0.00973683
0.0100112
0.00981116
0.00923596
0.00845718
0.00767753
0.00708419
0.00678592
0.00675198
0.00685123
0.00695117
0.00695305
0.00685531
0.00665834
0.00635868
0.00595223
0.005432
0.00477568
0.00389974
0.00258601
0.00132307
0.00298344
0.00522812
0.00211998
0.00283588
0.00652133
0.00659592
0.00579109
0.00492443
0.00427245
0.00388865
0.00375108
0.00378554
0.0039723
0.00438503
0.0051319
0.00623216
0.00755083
0.00883951
0.00983254
0.0103377
0.0102863
0.00973688
0.0088504
0.00786479
0.00704008
0.00657089
0.00647756
0.00656321
0.00669668
0.00678298
0.00675798
0.00664378
0.00644411
0.00615333
0.0057565
0.0052191
0.00446601
0.00336183
0.00206503
0.00155416
0.00318979
0.00539602
0.00224093
0.00258648
0.00583664
0.00630142
0.00591931
0.00536215
0.00489457
0.00458365
0.00443159
0.00438579
0.00454411
0.00506786
0.00604516
0.00737873
0.00880767
0.0100115
0.0107252
0.0108141
0.0102923
0.00930993
0.00811069
0.007026
0.00632664
0.00601935
0.00598984
0.00609144
0.00621777
0.00629152
0.00626403
0.00614509
0.00594015
0.00563961
0.00520909
0.00455449
0.00352474
0.00225466
0.00159664
0.00194009
0.00370131
0.0054875
0.00229014
0.00259507
0.00579414
0.00643961
0.0059924
0.00554106
0.00517162
0.00490513
0.00473182
0.00472212
0.00510682
0.00603212
0.0074192
0.00898557
0.0103659
0.0112379
0.011415
0.0108832
0.00977309
0.00836753
0.0070038
0.00601101
0.00542754
0.00516617
0.00512568
0.00520594
0.00531308
0.0053724
0.00533963
0.00520321
0.00497522
0.00464072
0.0041373
0.00333528
0.00227641
0.00159655
0.00171988
0.00248229
0.0038973
0.00528392
0.00214937
0.00234218
0.00243615
0.00359173
0.00421824
0.00441113
0.00441307
0.00436923
0.00444746
0.00498226
0.00613072
0.0077544
0.00951259
0.0110179
0.011944
0.0120998
0.0114534
0.0101684
0.00849739
0.00690243
0.00565092
0.00481546
0.00434954
0.00415499
0.00411809
0.00414858
0.00417707
0.00415348
0.00405528
0.00386317
0.00360563
0.00328658
0.00287904
0.00234253
0.00179843
0.00162492
0.00202424
0.00287161
0.0038866
0.00443062
0.00202562
0.000806384
0.00146221
0.00225651
0.00289736
0.00363909
0.00489155
0.006738
0.00879654
0.0106809
0.0120969
0.0128381
0.0127664
0.011885
0.0102954
0.00840785
0.0066247
0.00521413
0.00428045
0.00378125
0.00355332
0.003455
0.00340387
0.00335167
0.00326688
0.00313531
0.00296418
0.00277668
0.00258986
0.00242058
0.00226225
0.00209898
0.00195115
0.00195831
0.00233219
0.00311802
0.0041102
0.00500256
0.00200708
0.00149737
0.00207485
0.00302872
0.00473365
0.00704957
0.00937817
0.0111901
0.0125106
0.0133236
0.0135654
0.0131246
0.0118892
0.0100522
0.00797395
0.0060711
0.00465783
0.00384235
0.00346583
0.0033112
0.0032473
0.00321196
0.00317288
0.00311209
0.00302443
0.00291865
0.00281271
0.00272301
0.00265574
0.0026102
0.00258029
0.00256381
0.00257661
0.00267131
0.00296252
0.00361828
0.00483298
0.00554726
0.00218726
0.00275713
0.00668139
0.00614012
0.005479
0.0069643
0.00929697
0.0112732
0.0126183
0.0133424
0.0135401
0.0132933
0.0125492
0.0112515
0.00943589
0.00736585
0.00551016
0.00427687
0.00367076
0.00343621
0.00336773
0.00336468
0.00337932
0.00338585
0.00337132
0.00333437
0.00328319
0.00323033
0.00318673
0.00315863
0.00314879
0.00315901
0.00319501
0.00326862
0.0033947
0.0036132
0.00399852
0.00469215
0.00619938
0.0063159
0.00227026
0.00263863
0.00509704
0.00656705
0.00839277
0.00932438
0.0102919
0.0108614
0.0110077
0.0108095
0.0103213
0.00955858
0.00851629
0.00722311
0.00582848
0.00458866
0.00375086
0.00331036
0.00312728
0.00308603
0.00312016
0.00318903
0.00326374
0.00332429
0.0033609
0.00337408
0.0033712
0.00336096
0.00334963
0.00334197
0.00334588
0.00337691
0.00345854
0.00361816
0.00387618
0.00425501
0.00474455
0.00541447
0.00656996
0.00668937
0.00234204
0.0024739
0.0021204
0.00211033
0.0021727
0.00222485
0.00216134
0.00203567
0.00188842
0.00173995
0.00159683
0.00145966
0.00132996
0.00121514
0.001128
0.00107874
0.00105823
0.00105637
0.0010649
0.00107852
0.00109416
0.00111008
0.0011254
0.00113999
0.00115433
0.00116938
0.0011865
0.00120737
0.00123411
0.00126949
0.00131685
0.00137937
0.00145859
0.00155325
0.00165989
0.00177575
0.00190195
0.00203358
0.00217137
0.00230579
0.00217316
)
;

boundaryField
{
    floor
    {
        type            nutkWallFunction;
        Cmu             0.09;
        kappa           0.41;
        E               9.8;
        value           nonuniform List<scalar> 
36
(
0.00016054
7.63656e-05
0.000109506
0.000110366
0.00010773
0.00010331
9.7378e-05
9.14281e-05
8.59064e-05
8.08903e-05
7.63592e-05
7.22937e-05
6.86187e-05
6.5251e-05
6.20895e-05
5.8995e-05
5.57392e-05
5.30207e-05
4.74866e-05
4.74865e-05
6.15165e-05
7.04597e-05
7.78215e-05
9.30591e-05
0.000123423
0.00011794
0.000160541
0.000174968
0.000167224
0.000160412
7.63656e-05
0.000160412
0.00013605
0.000194655
0.000169887
0.000193913
)
;
    }
    ceiling
    {
        type            nutkWallFunction;
        Cmu             0.09;
        kappa           0.41;
        E               9.8;
        value           nonuniform List<scalar> 
43
(
0.000284342
0.000246404
0.000245316
0.000252064
0.000257693
0.000250862
0.000237259
0.000221198
0.000204865
0.000188977
0.000173603
0.000158919
0.00014578
0.000135704
0.000129961
0.000127556
0.000127332
0.000128325
0.000129917
0.000131746
0.000133604
0.000135392
0.000137091
0.000138756
0.000140497
0.000142468
0.000144861
0.000147913
0.000151932
0.000157292
0.000164343
0.000173253
0.000183865
0.000195773
0.000208633
0.000222535
0.000236959
0.000251959
0.000266498
0.000252156
0.000270476
0.000280518
0.000177611
)
;
    }
    sWall
    {
        type            nutkWallFunction;
        Cmu             0.09;
        kappa           0.41;
        E               9.8;
        value           nonuniform List<scalar> 9(0.000373881 0.000352058 0.000322951 0.000296619 0.000297525 0.000270565 0.000314353 0.000301877 0.000284443);
    }
    nWall
    {
        type            nutkWallFunction;
        Cmu             0.09;
        kappa           0.41;
        E               9.8;
        value           nonuniform List<scalar> 
14
(
0.000117948
0.000140049
0.00016438
0.00024463
0.000246535
0.000259644
0.000264682
0.000249409
0.000235997
0.000234308
0.000253757
0.000262641
0.000270318
0.000252194
)
;
    }
    sideWalls
    {
        type            empty;
    }
    glass1
    {
        type            nutkWallFunction;
        Cmu             0.09;
        kappa           0.41;
        E               9.8;
        value           nonuniform List<scalar> 9(0.000108248 0.000156883 0.000196737 0.00023435 0.000270794 0.000306145 0.000341764 0.000372086 0.000381376);
    }
    glass2
    {
        type            nutkWallFunction;
        Cmu             0.09;
        kappa           0.41;
        E               9.8;
        value           nonuniform List<scalar> 2(0.000214151 0.000241581);
    }
    sun
    {
        type            nutkWallFunction;
        Cmu             0.09;
        kappa           0.41;
        E               9.8;
        value           nonuniform List<scalar> 
14
(
0.000108207
0.000115183
0.000114774
0.00011964
0.000124079
0.000128095
0.000131819
0.000135396
0.000138986
0.000142789
0.000146402
0.000149823
0.000153184
0.000156789
)
;
    }
    Table_master
    {
        type            nutkWallFunction;
        Cmu             0.09;
        kappa           0.41;
        E               9.8;
        value           nonuniform List<scalar> 9(0.000139269 0.000121633 0.000107823 9.68756e-05 8.80623e-05 8.08746e-05 7.49569e-05 7.01027e-05 6.62901e-05);
    }
    Table_slave
    {
        type            nutkWallFunction;
        Cmu             0.09;
        kappa           0.41;
        E               9.8;
        value           nonuniform List<scalar> 9(0.000157742 0.000144057 0.000133358 0.000124382 0.000116675 0.000109704 0.000103086 9.64638e-05 8.9249e-05);
    }
    inlet
    {
        type            calculated;
        value           uniform 0.000167705;
    }
    outlet
    {
        type            calculated;
        value           nonuniform List<scalar> 2(0.00275713 0.00668139);
    }
}


// ************************************************************************* //
