/*--------------------------------*- C++ -*----------------------------------*\
  =========                 |
  \\      /  F ield         | OpenFOAM: The Open Source CFD Toolbox
   \\    /   O peration     | Website:  https://openfoam.org
    \\  /    A nd           | Version:  6
     \\/     M anipulation  |
\*---------------------------------------------------------------------------*/
FoamFile
{
    version     2.0;
    format      ascii;
    class       volScalarField;
    location    "1380";
    object      alphat;
}
// * * * * * * * * * * * * * * * * * * * * * * * * * * * * * * * * * * * * * //

dimensions      [1 -1 -1 0 0 0 0];

internalField   nonuniform List<scalar> 
458
(
0.00124412
0.00135525
0.00138595
0.00145227
0.00151336
0.0015712
0.00162907
0.00168782
0.00173587
0.00176608
0.00176952
0.0017374
0.00165866
0.00149197
0.0011318
0.000559117
0.000655489
0.000743176
0.000774896
0.000762756
0.00071377
0.000659576
0.000611085
0.000569083
0.000532601
0.000500745
0.00047287
0.000448152
0.000425638
0.000404284
0.000382842
0.000370096
0.000340112
0.00167645
0.00377419
0.0034815
0.00398912
0.00449526
0.00501591
0.00548313
0.00584452
0.00621586
0.00656361
0.00684264
0.00701214
0.00702787
0.00678295
0.00551219
0.00149408
0.00123951
0.00101123
0.000554597
0.00131634
0.0019185
0.00238462
0.002532
0.00184528
0.00155776
0.00136214
0.00121776
0.00110714
0.00101937
0.000943685
0.000872554
0.000801558
0.000738128
0.000684958
0.000837911
0.000447107
0.00203695
0.00507216
0.00418635
0.00510425
0.00548998
0.00576085
0.00596908
0.00616138
0.0064293
0.00675519
0.0071114
0.00746034
0.00773555
0.00783148
0.00737884
0.00601358
0.00455736
0.00119437
0.00085426
0.00147425
0.00214522
0.00281255
0.00300311
0.000959352
0.000839891
0.000740499
0.000659995
0.000595029
0.000542382
0.000499586
0.000464977
0.000438057
0.000485436
0.000562189
0.000983156
0.000528378
0.00238378
0.00647791
0.00407212
0.00528761
0.00549856
0.00547742
0.00545784
0.00555004
0.00576811
0.00609087
0.00650093
0.00695797
0.00735773
0.00760859
0.00755124
0.00716027
0.00614517
0.00337366
0.00137592
0.00175189
0.00240826
0.00321199
0.00390873
0.00394285
0.00108049
0.000990391
0.000929023
0.000883723
0.000845426
0.000807356
0.000771214
0.000733028
0.000688399
0.000648448
0.000639027
0.00117174
0.000608552
0.00273783
0.0083687
0.00427103
0.00501904
0.00532048
0.0051401
0.0049933
0.00507696
0.00530739
0.00564354
0.00608596
0.00658724
0.00697902
0.00717352
0.00716805
0.0070308
0.00662545
0.00547855
0.0049652
0.00500102
0.00529214
0.00563899
0.00585167
0.00575529
0.00491008
0.00447554
0.004236
0.00406449
0.00389087
0.00366748
0.00328734
0.00279782
0.00224102
0.00170471
0.00127866
0.00119138
0.00103429
0.000813322
0.00086076
0.000935588
0.00311664
0.0104976
0.00584877
0.00464675
0.00506395
0.00505305
0.00486555
0.00493511
0.00517033
0.00550694
0.00595587
0.00643658
0.00679928
0.00691468
0.00680418
0.00664661
0.00657567
0.00648104
0.00667581
0.00701367
0.00725057
0.0072925
0.00713246
0.006798
0.0063312
0.00595202
0.0056567
0.00539654
0.00514106
0.00486994
0.00451978
0.00403969
0.00343244
0.00274555
0.00210984
0.00152997
0.00125755
0.0010969
0.0013812
0.000970514
0.00348933
0.012102
0.00872463
0.0057105
0.00496915
0.00504017
0.00510361
0.00514043
0.00527428
0.00557154
0.00601354
0.00649005
0.00682241
0.00685871
0.00664931
0.00649791
0.00674704
0.00729979
0.00786241
0.00817974
0.00818011
0.00790751
0.00744607
0.00688457
0.00632536
0.0058754
0.00553463
0.00525834
0.00501657
0.0047996
0.00460222
0.00434409
0.00391967
0.00335251
0.00276344
0.00219747
0.00182809
0.00167467
0.00159625
0.00115311
0.00357893
0.0112149
0.00952692
0.00799828
0.00682862
0.00631036
0.0058236
0.00549394
0.00549013
0.00577424
0.00623158
0.00670207
0.00698139
0.0069163
0.00665973
0.00672341
0.00743561
0.00801994
0.00832411
0.00830984
0.00797928
0.00740787
0.00670499
0.0059961
0.00540706
0.00499426
0.00471582
0.00451584
0.00436786
0.00426811
0.00422381
0.00422588
0.00411283
0.00377577
0.00344723
0.00326421
0.003344
0.00352999
0.00419317
0.00178524
0.00350478
0.00423034
0.00467525
0.00492478
0.00496207
0.00488882
0.0048923
0.00510061
0.00552055
0.00605428
0.00659946
0.00702806
0.00716476
0.00691737
0.00684718
0.0072084
0.00762595
0.00776889
0.00766481
0.00730197
0.0066939
0.00594313
0.0051936
0.00457853
0.00415288
0.00388187
0.00370004
0.00356184
0.00344404
0.00333344
0.00321999
0.00309542
0.00298242
0.0028846
0.0028198
0.00278325
0.00271379
0.00257081
0.00239713
0.00166671
0.00157969
0.00276041
0.0037765
0.00457225
0.00530117
0.00601029
0.00657169
0.00694762
0.00719156
0.00722424
0.00698605
0.00669732
0.00669838
0.00681781
0.0067259
0.00645499
0.00602791
0.00545288
0.00479165
0.00414556
0.00363126
0.0032848
0.00307239
0.002942
0.00285539
0.0027923
0.00274393
0.00270822
0.00268814
0.00269438
0.00271011
0.00272412
0.00272482
0.00268169
0.00254871
0.00231443
0.0020242
0.00134113
0.00238084
0.00465377
0.00595169
0.00679236
0.00744592
0.00749577
0.00710379
0.00671016
0.0063724
0.00573434
0.00528102
0.00517572
0.00510431
0.00490453
0.00460344
0.00423028
0.00379272
0.00333237
0.00291725
0.00259439
0.0023717
0.0022433
0.00218309
0.00217008
0.00219127
0.00223849
0.00230452
0.00238091
0.00247035
0.00257299
0.00268283
0.00279069
0.00287842
0.00292221
0.0028813
0.0028456
0.00261997
0.00135861
0.00249159
0.00255349
0.00260943
0.00289321
0.00272898
0.00241415
0.00203346
0.0017284
0.00154185
0.00136504
0.00120955
0.00108788
0.000984898
0.00090687
0.00085265
0.000813037
0.000781181
0.00075377
0.000731139
0.000715868
0.000710169
0.000714442
0.000727127
0.000745777
0.000769341
0.000797265
0.000829391
0.00086591
0.000907423
0.000955227
0.00100962
0.0010702
0.00113728
0.00121116
0.00129189
0.00138862
0.00143093
0.0014016
0.00130365
0.00120556
)
;

boundaryField
{
    floor
    {
        type            compressible::alphatWallFunction;
        Prt             0.85;
        value           nonuniform List<scalar> 
36
(
0.000160687
7.82027e-05
9.26091e-05
0.000105493
0.000110109
0.000108346
0.000101195
9.32149e-05
8.60067e-05
7.97062e-05
7.41872e-05
6.93294e-05
6.50468e-05
6.12226e-05
5.77161e-05
5.43683e-05
5.09838e-05
4.89604e-05
4.41647e-05
4.41641e-05
6.1061e-05
7.35465e-05
8.563e-05
0.000115678
0.000122505
0.000133176
0.000160685
0.000210156
0.000175558
0.000143842
7.82018e-05
0.00014384
7.75192e-05
0.000169344
0.000121557
0.000194189
)
;
    }
    ceiling
    {
        type            compressible::alphatWallFunction;
        Prt             0.85;
        value           nonuniform List<scalar> 
43
(
0.000340273
0.000348136
0.000355227
0.000391032
0.00037044
0.000330542
0.000281532
0.000241537
0.0002167
0.000192845
0.000171576
0.000154714
0.000140271
0.00012921
0.000121459
0.000115758
0.00011115
0.000107167
0.000103866
0.000101631
0.000100795
0.000101422
0.000103279
0.000106003
0.000109432
0.000113481
0.000118117
0.000123361
0.000129291
0.00013608
0.000143758
0.000152252
0.000161591
0.000171806
0.000182887
0.000196062
0.000201791
0.000197821
0.000184496
0.000171038
0.00046712
0.000555328
0.000326053
)
;
    }
    sWall
    {
        type            compressible::alphatWallFunction;
        Prt             0.85;
        value           uniform 0.00033903;
    }
    nWall
    {
        type            compressible::alphatWallFunction;
        Prt             0.85;
        value           nonuniform List<scalar> 6(0.000132957 0.000137898 0.000163428 0.000189266 0.000191642 0.000170697);
    }
    sideWalls
    {
        type            empty;
    }
    glass1
    {
        type            compressible::alphatWallFunction;
        Prt             0.85;
        value           nonuniform List<scalar> 9(0.00017166 0.000229167 0.000275991 0.000320288 0.00036487 0.000411952 0.000457736 0.000468805 0.000459996);
    }
    glass2
    {
        type            compressible::alphatWallFunction;
        Prt             0.85;
        value           nonuniform List<scalar> 2(0.000247085 0.000231543);
    }
    sun
    {
        type            compressible::alphatWallFunction;
        Prt             0.85;
        value           nonuniform List<scalar> 
14
(
0.00017621
0.00019138
0.000195548
0.000204522
0.000212747
0.000220501
0.000228226
0.000236039
0.000242405
0.000246398
0.000246851
0.000242606
0.000232163
0.00020987
)
;
    }
    Table_master
    {
        type            compressible::alphatWallFunction;
        Prt             0.85;
        value           nonuniform List<scalar> 9(0.000136678 0.000119641 0.000105246 9.34156e-05 8.37403e-05 7.5804e-05 6.92819e-05 6.3956e-05 5.97786e-05);
    }
    Table_slave
    {
        type            compressible::alphatWallFunction;
        Prt             0.85;
        value           nonuniform List<scalar> 9(0.000153705 0.000141066 0.00013238 0.000125926 0.000120439 0.000114955 0.00010972 0.000104157 9.76108e-05);
    }
    inlet
    {
        type            fixedValue;
        value           uniform 1.94e-05;
    }
    outlet
    {
        type            zeroGradient;
    }
}


// ************************************************************************* //
