/*--------------------------------*- C++ -*----------------------------------*\
  =========                 |
  \\      /  F ield         | OpenFOAM: The Open Source CFD Toolbox
   \\    /   O peration     | Website:  https://openfoam.org
    \\  /    A nd           | Version:  6
     \\/     M anipulation  |
\*---------------------------------------------------------------------------*/
FoamFile
{
    version     2.0;
    format      ascii;
    class       volScalarField;
    location    "1380";
    object      epsilon;
}
// * * * * * * * * * * * * * * * * * * * * * * * * * * * * * * * * * * * * * //

dimensions      [0 2 -3 0 0 0 0];

internalField   nonuniform List<scalar> 
458
(
0.000432841
0.000557956
0.00059665
0.000686449
0.000776748
0.000869229
0.000968816
0.00107742
0.001172
0.00123415
0.00124127
0.00117484
0.00102229
0.000744115
0.000324981
3.92338e-05
6.32053e-05
9.21083e-05
0.000104419
9.95947e-05
8.16162e-05
6.44051e-05
5.12218e-05
4.13711e-05
3.39155e-05
2.8188e-05
2.3739e-05
2.02085e-05
1.73143e-05
1.48376e-05
1.26005e-05
1.13842e-05
8.83746e-06
0.00106107
0.00158341
0.000518549
0.000502726
0.000518584
0.00055107
0.000606435
0.000688665
0.000779932
0.00085416
0.000882241
0.000847976
0.000757014
0.000624074
0.000502078
0.00074745
0.000426818
0.000231817
3.82948e-05
7.53682e-05
9.27531e-05
9.34404e-05
8.97427e-05
9.00459e-05
7.05679e-05
5.34986e-05
4.08098e-05
3.15387e-05
2.47422e-05
1.97236e-05
1.59683e-05
1.31692e-05
1.14069e-05
1.06893e-05
3.04882e-05
2.00747e-05
0.00190715
0.00384784
0.000603857
0.000458388
0.000466142
0.000508301
0.000580632
0.000683872
0.000797378
0.000884644
0.000918314
0.000888195
0.000802214
0.000667321
0.000517757
0.000416512
0.000353155
0.000381953
0.000139903
0.000139221
0.000125582
0.000111532
0.00010354
0.000198178
0.000132982
9.11378e-05
6.45284e-05
4.72874e-05
3.58137e-05
2.79876e-05
2.25649e-05
1.88684e-05
1.48289e-05
1.31283e-05
6.48715e-05
3.31325e-05
0.0030629
0.00799431
0.000903929
0.000439056
0.000429307
0.00048135
0.000575108
0.000718138
0.000862952
0.000958354
0.000989606
0.00095327
0.000855536
0.000703566
0.00054869
0.000432508
0.000365992
0.000380611
0.000584019
0.000375934
0.000245241
0.000178335
0.00014051
0.00012303
0.000283293
0.000218205
0.000180128
0.00015506
0.000135774
0.000118253
0.000103078
8.85157e-05
7.3314e-05
4.5402e-05
2.92928e-05
0.000114637
5.06232e-05
0.00464976
0.0144271
0.00174055
0.000470951
0.000395707
0.000451711
0.000589067
0.000833089
0.00101879
0.00111212
0.00112866
0.00106952
0.000937713
0.000753926
0.000565015
0.000420186
0.000331761
0.00030277
0.000303886
0.000253662
0.000209434
0.000175169
0.000146343
0.000122109
0.000113098
0.000103841
9.75597e-05
9.22113e-05
8.62125e-05
7.87786e-05
7.08915e-05
6.31616e-05
5.59063e-05
4.60315e-05
3.61912e-05
7.47547e-05
0.000114587
0.000120968
0.000143505
0.000184282
0.00687179
0.0217347
0.00400215
0.000790937
0.000465237
0.000474217
0.000701053
0.0011203
0.00130658
0.00136624
0.00134393
0.00124647
0.0010675
0.000825439
0.00057779
0.000388837
0.00027891
0.000238595
0.000228294
0.000218304
0.000201195
0.000176817
0.000149346
0.000123795
0.000107357
0.00010093
9.97643e-05
9.93578e-05
9.72179e-05
9.16771e-05
8.17197e-05
7.04549e-05
5.98086e-05
5.01489e-05
4.34406e-05
5.55245e-05
8.83466e-05
0.000106127
0.000206704
0.000205618
0.00965897
0.0261938
0.00879643
0.00280151
0.00145482
0.00114153
0.00148381
0.00172723
0.00178649
0.00174958
0.00165022
0.00148383
0.00123024
0.000908322
0.000588373
0.000355996
0.000234576
0.00020028
0.00020244
0.000203086
0.000190103
0.000166916
0.00014139
0.000120241
0.000109095
0.000108569
0.000113677
0.000120166
0.000125739
0.000128187
0.000124109
0.000111096
9.74934e-05
8.59378e-05
8.04495e-05
8.87247e-05
0.000120585
0.000176776
0.000327316
0.000344805
0.0104469
0.0300946
0.0160952
0.00965337
0.00597117
0.00418182
0.00338453
0.00287671
0.00253873
0.00228173
0.0020396
0.0017614
0.00139749
0.000968546
0.000561452
0.00030055
0.000190451
0.000174452
0.000179705
0.000177188
0.000162267
0.000142009
0.00012416
0.000113559
0.000112244
0.00011907
0.000131181
0.000146863
0.000165745
0.000187734
0.000212033
0.000232948
0.000246016
0.000273126
0.000329081
0.000480064
0.000820453
0.00137756
0.00410996
0.00128191
0.0098435
0.0172555
0.0132405
0.00999035
0.00750831
0.00579433
0.00459015
0.00379133
0.00325171
0.00282433
0.00242746
0.00200685
0.00148408
0.000914182
0.000407075
0.000216138
0.000158933
0.000147587
0.000144512
0.000136983
0.000124642
0.000112519
0.00010499
0.000104117
0.000109955
0.000121521
0.000138067
0.000159895
0.000188363
0.00022572
0.000275034
0.000339926
0.000427245
0.000551955
0.00073403
0.000976737
0.001251
0.00149865
0.00170336
0.00104494
0.0034792
0.00472054
0.00512322
0.00502842
0.00473338
0.00432023
0.00378393
0.00315867
0.00254826
0.0019486
0.00116377
0.000536557
0.000254547
0.000159696
0.000129175
0.000118204
0.000110934
0.000103115
9.54609e-05
8.99701e-05
8.84396e-05
9.12989e-05
9.8158e-05
0.000108612
0.000122665
0.000140895
0.000164551
0.000195757
0.000237984
0.000297005
0.000378468
0.000488604
0.000629972
0.000786488
0.000911362
0.000944886
0.00087131
0.000544328
0.00289509
0.00862142
0.00828282
0.00717362
0.00607569
0.00478994
0.00347871
0.0022569
0.00128305
0.000710085
0.000375229
0.000215387
0.000151233
0.000124139
0.000111055
0.000102164
9.41747e-05
8.70087e-05
8.16701e-05
7.88991e-05
7.89768e-05
8.20125e-05
8.79674e-05
9.70217e-05
0.000109697
0.0001269
0.000150024
0.000181141
0.000223208
0.000279997
0.000356636
0.000458328
0.000585898
0.000728718
0.000842181
0.000956433
0.000733742
0.000565826
0.00336791
0.00362375
0.00386701
0.00532545
0.00449745
0.00312984
0.0018793
0.0011579
0.000823558
0.000572222
0.000398427
0.000290013
0.000215267
0.00016808
0.000139715
0.000121142
0.000107459
9.65443e-05
8.81098e-05
8.27052e-05
8.07467e-05
8.22134e-05
8.66707e-05
9.35117e-05
0.000102658
0.000114247
0.000128621
0.00014637
0.000168446
0.000196494
0.00023201
0.000276332
0.000331618
0.000400551
0.000486127
0.000603759
0.000660716
0.000620956
0.000499682
0.000395318
)
;

boundaryField
{
    floor
    {
        Cmu             0.09;
        kappa           0.41;
        E               9.8;
        type            epsilonWallFunction;
        value           nonuniform List<scalar> 
36
(
0.000324981
3.92338e-05
6.32053e-05
9.21083e-05
0.000104419
9.95947e-05
8.16162e-05
6.44051e-05
5.12218e-05
4.13711e-05
3.39155e-05
2.8188e-05
2.3739e-05
2.02085e-05
1.73143e-05
1.48376e-05
1.26005e-05
1.13842e-05
8.83746e-06
8.83746e-06
2.00747e-05
3.31325e-05
5.06232e-05
0.000120968
0.000143505
0.000184282
0.000324981
0.00074745
0.000426818
0.000231817
3.92338e-05
0.000231817
3.82948e-05
0.000381953
0.000139903
0.000584019
)
;
    }
    ceiling
    {
        Cmu             0.09;
        kappa           0.41;
        E               9.8;
        type            epsilonWallFunction;
        value           nonuniform List<scalar> 
43
(
0.00336791
0.00362375
0.00386701
0.00532545
0.00449745
0.00312984
0.0018793
0.0011579
0.000823558
0.000572222
0.000398427
0.000290013
0.000215267
0.00016808
0.000139715
0.000121142
0.000107459
9.65443e-05
8.81098e-05
8.27052e-05
8.07467e-05
8.22134e-05
8.66707e-05
9.35117e-05
0.000102658
0.000114247
0.000128621
0.00014637
0.000168446
0.000196494
0.00023201
0.000276332
0.000331618
0.000400551
0.000486127
0.000603759
0.000660716
0.000620956
0.000499682
0.000395318
0.0098435
0.0172555
0.00289509
)
;
    }
    sWall
    {
        Cmu             0.09;
        kappa           0.41;
        E               9.8;
        type            epsilonWallFunction;
        value           uniform 0.00336791;
    }
    nWall
    {
        Cmu             0.09;
        kappa           0.41;
        E               9.8;
        type            epsilonWallFunction;
        value           nonuniform List<scalar> 6(0.000184282 0.000205618 0.000344805 0.000544328 0.000565826 0.000395318);
    }
    sideWalls
    {
        type            empty;
    }
    glass1
    {
        Cmu             0.09;
        kappa           0.41;
        E               9.8;
        type            epsilonWallFunction;
        value           nonuniform List<scalar> 9(0.000432841 0.00106107 0.00190715 0.0030629 0.00464976 0.00687179 0.00965897 0.0104469 0.0098435);
    }
    glass2
    {
        Cmu             0.09;
        kappa           0.41;
        E               9.8;
        type            epsilonWallFunction;
        value           nonuniform List<scalar> 2(0.00128191 0.00104494);
    }
    sun
    {
        Cmu             0.09;
        kappa           0.41;
        E               9.8;
        type            epsilonWallFunction;
        value           nonuniform List<scalar> 
14
(
0.000432841
0.000557956
0.00059665
0.000686449
0.000776748
0.000869229
0.000968816
0.00107742
0.001172
0.00123415
0.00124127
0.00117484
0.00102229
0.000744115
)
;
    }
    Table_master
    {
        Cmu             0.09;
        kappa           0.41;
        E               9.8;
        type            epsilonWallFunction;
        value           nonuniform List<scalar> 9(0.000198178 0.000132982 9.11378e-05 6.45284e-05 4.72874e-05 3.58137e-05 2.79876e-05 2.25649e-05 1.88684e-05);
    }
    Table_slave
    {
        Cmu             0.09;
        kappa           0.41;
        E               9.8;
        type            epsilonWallFunction;
        value           nonuniform List<scalar> 9(0.000283293 0.000218205 0.000180128 0.00015506 0.000135774 0.000118253 0.000103078 8.85157e-05 7.3314e-05);
    }
    inlet
    {
        type            turbulentMixingLengthDissipationRateInlet;
        mixingLength    0.01;
        phi             phi;
        k               k;
        value           uniform 0.000471672;
    }
    outlet
    {
        type            zeroGradient;
    }
}


// ************************************************************************* //
