/*--------------------------------*- C++ -*----------------------------------*\
  =========                 |
  \\      /  F ield         | OpenFOAM: The Open Source CFD Toolbox
   \\    /   O peration     | Website:  https://openfoam.org
    \\  /    A nd           | Version:  6
     \\/     M anipulation  |
\*---------------------------------------------------------------------------*/
FoamFile
{
    version     2.0;
    format      ascii;
    class       volVectorField;
    location    "1890";
    object      U;
}
// * * * * * * * * * * * * * * * * * * * * * * * * * * * * * * * * * * * * * //

dimensions      [0 1 -1 0 0 0 0];

internalField   nonuniform List<vector> 
458
(
(0.0348269 0.0885216 0)
(-0.172079 0.0265833 0)
(-0.199346 0.0191132 0)
(-0.233221 0.0130814 0)
(-0.258394 0.00641434 0)
(-0.273599 -0.000803903 0)
(-0.27673 -0.00877683 0)
(-0.265485 -0.0177763 0)
(-0.239429 -0.0274248 0)
(-0.199721 -0.0361094 0)
(-0.150458 -0.0420493 0)
(-0.0978424 -0.0436498 0)
(-0.0487418 -0.0390813 0)
(-0.00628426 -0.0236912 0)
(-0.0102722 0.00976763 0)
(-0.0102284 0.0105063 0)
(-0.0372463 -0.017497 0)
(-0.0144948 -0.029116 0)
(0.0137027 -0.0251857 0)
(0.0334678 -0.0178899 0)
(0.0480851 -0.00955562 0)
(0.0568436 -0.00517737 0)
(0.0607207 -0.00363354 0)
(0.0621551 -0.0030838 0)
(0.0628038 -0.00276075 0)
(0.0631131 -0.00251018 0)
(0.0630515 -0.00224212 0)
(0.062453 -0.00179781 0)
(0.0608603 -0.000838706 0)
(0.0572564 0.00107539 0)
(0.0505336 0.00317281 0)
(0.0451219 0.0050904 0)
(-0.0141375 0.0219519 0)
(0.214276 0.181889 0)
(-0.162149 0.0709915 0)
(-0.16294 0.0577619 0)
(-0.198655 0.0457434 0)
(-0.224131 0.031989 0)
(-0.240108 0.0161771 0)
(-0.244612 -0.00240742 0)
(-0.235118 -0.023963 0)
(-0.211872 -0.0461654 0)
(-0.176493 -0.0649224 0)
(-0.133365 -0.0764235 0)
(-0.0881378 -0.0781975 0)
(-0.0462712 -0.0687312 0)
(-0.0100402 -0.046024 0)
(0.0193986 -0.0133891 0)
(0.0442306 0.00784509 0)
(0.0548396 0.0347561 0)
(-0.0118172 0.070681 0)
(0.0670491 0.0439707 0)
(0.0103151 -0.0218344 0)
(0.0265304 -0.0379026 0)
(0.0407613 -0.0356476 0)
(0.0531512 -0.0273409 0)
(0.0595758 -0.0120915 0)
(0.0611962 -0.00275156 0)
(0.0612452 0.000747242 0)
(0.0614093 0.00202451 0)
(0.0617344 0.00272334 0)
(0.0619594 0.00322317 0)
(0.0620168 0.00367641 0)
(0.0619126 0.00440894 0)
(0.0612012 0.00620762 0)
(0.0578035 0.0112279 0)
(0.0491101 0.0155394 0)
(0.0476973 0.0187136 0)
(-0.0584156 0.0475572 0)
(0.379539 0.272954 0)
(-0.180118 0.113731 0)
(-0.123511 0.0941084 0)
(-0.159196 0.0724343 0)
(-0.182598 0.0495038 0)
(-0.198408 0.023645 0)
(-0.204062 -0.00653091 0)
(-0.195375 -0.0409738 0)
(-0.173594 -0.0757737 0)
(-0.141431 -0.103642 0)
(-0.103849 -0.118948 0)
(-0.0659039 -0.119153 0)
(-0.0318321 -0.10412 0)
(-0.00228817 -0.0744033 0)
(0.0220185 -0.0400792 0)
(0.0375835 -0.0152244 0)
(0.0431665 0.013157 0)
(-0.0236767 0.0623084 0)
(0.122496 -0.00756112 0)
(0.0725044 -0.032108 0)
(0.0643064 -0.0419379 0)
(0.0672572 -0.0417615 0)
(0.0718685 -0.0380461 0)
(0.0734927 -0.028227 0)
(0.0643709 -0.0183276 0)
(0.0574167 -0.0130256 0)
(0.0548188 -0.0100775 0)
(0.0541282 -0.00818507 0)
(0.0538949 -0.00689672 0)
(0.0539661 -0.0059017 0)
(0.0547665 -0.00475229 0)
(0.0572192 -0.00139676 0)
(0.0561142 0.0149989 0)
(0.044597 0.0258782 0)
(0.0541334 0.0332603 0)
(-0.0993611 0.0728053 0)
(0.530035 0.346651 0)
(-0.216672 0.151753 0)
(-0.0801985 0.125835 0)
(-0.115537 0.0962963 0)
(-0.133416 0.0672248 0)
(-0.146928 0.0337657 0)
(-0.152514 -0.00710627 0)
(-0.142621 -0.0550463 0)
(-0.121289 -0.102299 0)
(-0.0929821 -0.13783 0)
(-0.0625367 -0.155418 0)
(-0.0335781 -0.153424 0)
(-0.00880463 -0.133438 0)
(0.0128571 -0.0979257 0)
(0.0304215 -0.0589757 0)
(0.0443421 -0.0229002 0)
(0.059937 0.0131431 0)
(0.0588006 0.0534286 0)
(0.10031 0.0614994 0)
(0.0987919 -0.00245528 0)
(0.0851233 -0.0294008 0)
(0.0784404 -0.0376984 0)
(0.0735915 -0.0383998 0)
(0.0669981 -0.034112 0)
(0.0665806 -0.0208402 0)
(0.0772593 -0.0138312 0)
(0.0862247 -0.0101082 0)
(0.091626 -0.00782511 0)
(0.0948675 -0.00591725 0)
(0.0962755 -0.00385601 0)
(0.0945082 -0.00119029 0)
(0.0882463 0.00248042 0)
(0.0757029 0.00774342 0)
(0.0597913 0.0251031 0)
(0.0440582 0.0405925 0)
(0.0629734 0.0533575 0)
(-0.131369 0.0942926 0)
(0.662689 0.403809 0)
(-0.262357 0.182675 0)
(-0.0350336 0.145255 0)
(-0.0687492 0.111318 0)
(-0.0779453 0.0792336 0)
(-0.0862922 0.0412522 0)
(-0.0890474 -0.007982 0)
(-0.0740277 -0.0688052 0)
(-0.0534826 -0.12589 0)
(-0.0315798 -0.165062 0)
(-0.0112767 -0.181834 0)
(0.00615945 -0.175986 0)
(0.019323 -0.151481 0)
(0.0303394 -0.114538 0)
(0.040186 -0.0729571 0)
(0.0494252 -0.0337216 0)
(0.0619178 0.000673703 0)
(0.0760144 0.019711 0)
(0.0902991 -0.000574886 0)
(0.0896526 -0.0213823 0)
(0.0825831 -0.0300433 0)
(0.073776 -0.0325579 0)
(0.0655329 -0.0316368 0)
(0.0585913 -0.0266383 0)
(0.0568134 -0.0155164 0)
(0.0603708 -0.00903076 0)
(0.0647158 -0.00637624 0)
(0.0684422 -0.00483353 0)
(0.0716876 -0.00275276 0)
(0.0741963 0.000778946 0)
(0.0750472 0.00596718 0)
(0.0731538 0.0129864 0)
(0.0682444 0.0224383 0)
(0.0611976 0.0371804 0)
(0.0500471 0.0536356 0)
(0.0748532 0.0727579 0)
(-0.00684654 0.101396 0)
(0.0557829 0.150675 0)
(-0.083526 0.0748338 0)
(-0.277796 0.000482555 0)
(0.761896 0.451324 0)
(-0.308554 0.203336 0)
(0.00242952 0.143883 0)
(-0.0205851 0.116257 0)
(-0.0197904 0.0857217 0)
(-0.0214992 0.0472968 0)
(-0.0143128 -0.0069318 0)
(0.0103174 -0.0859162 0)
(0.0269268 -0.14618 0)
(0.0388293 -0.182412 0)
(0.0460494 -0.194545 0)
(0.0488977 -0.185046 0)
(0.0486329 -0.158118 0)
(0.0472269 -0.119915 0)
(0.0460496 -0.0779336 0)
(0.0464599 -0.0396993 0)
(0.050804 -0.00998471 0)
(0.0599444 0.00482664 0)
(0.0662152 -0.00105373 0)
(0.0649582 -0.0110201 0)
(0.0585705 -0.0188152 0)
(0.0503994 -0.0229212 0)
(0.0427634 -0.023671 0)
(0.0367905 -0.0211441 0)
(0.0342431 -0.0157791 0)
(0.0353966 -0.0123024 0)
(0.0383542 -0.0108706 0)
(0.0420133 -0.00978149 0)
(0.0460757 -0.00764403 0)
(0.05026 -0.00338825 0)
(0.054472 0.00368183 0)
(0.0569896 0.0131861 0)
(0.0581557 0.0249446 0)
(0.0592805 0.0395803 0)
(0.0583571 0.0560043 0)
(0.0797022 0.0767026 0)
(0.0654424 0.0889961 0)
(0.0997197 0.0967371 0)
(0.117478 0.0571991 0)
(-0.1369 -0.0299333 0)
(0.815619 0.494189 0)
(-0.334126 0.187369 0)
(0.0322391 0.0937981 0)
(0.0390609 0.101053 0)
(0.0459299 0.0829988 0)
(0.0516235 0.0393707 0)
(0.0790986 -0.0311679 0)
(0.103112 -0.103696 0)
(0.11329 -0.157005 0)
(0.112867 -0.18632 0)
(0.104589 -0.192424 0)
(0.0907982 -0.178771 0)
(0.0741033 -0.149767 0)
(0.0575093 -0.111558 0)
(0.042976 -0.0708996 0)
(0.0326127 -0.0356794 0)
(0.0280862 -0.0107418 0)
(0.0294776 0.00100098 0)
(0.0311085 -0.000278298 0)
(0.0296049 -0.00657254 0)
(0.0249518 -0.012638 0)
(0.0188325 -0.0163805 0)
(0.0128093 -0.0177553 0)
(0.00800624 -0.0171176 0)
(0.0056489 -0.0152083 0)
(0.0059946 -0.0141134 0)
(0.0080367 -0.0139788 0)
(0.0110371 -0.0137513 0)
(0.0148338 -0.0123687 0)
(0.0195127 -0.00874492 0)
(0.0256818 -0.00163848 0)
(0.0332925 0.00886816 0)
(0.040059 0.0208908 0)
(0.0478679 0.0341618 0)
(0.0558674 0.0479628 0)
(0.0754448 0.0644618 0)
(0.0882276 0.0697774 0)
(0.119669 0.0632118 0)
(0.163391 0.051304 0)
(-0.0203457 0.0954853 0)
(0.921875 0.497288 0)
(-0.0766833 0.167417 0)
(0.110606 0.0261589 0)
(0.163735 0.0227904 0)
(0.161398 0.0155445 0)
(0.162865 -0.0293639 0)
(0.196491 -0.0804089 0)
(0.211275 -0.125538 0)
(0.205366 -0.15827 0)
(0.1851 -0.173974 0)
(0.155595 -0.171668 0)
(0.121098 -0.153971 0)
(0.0853038 -0.124273 0)
(0.0523772 -0.0880693 0)
(0.0244675 -0.051043 0)
(0.00511176 -0.0219009 0)
(-0.00464566 -0.00440489 0)
(-0.00657684 0.00177278 0)
(-0.00646031 0.0006665 0)
(-0.00766239 -0.00366572 0)
(-0.0109638 -0.00802037 0)
(-0.0154619 -0.0110905 0)
(-0.0200935 -0.0128637 0)
(-0.0239548 -0.0137009 0)
(-0.0263342 -0.0141518 0)
(-0.0272238 -0.0149015 0)
(-0.0271866 -0.0158833 0)
(-0.0266042 -0.0165947 0)
(-0.0254764 -0.0165065 0)
(-0.0234967 -0.0150415 0)
(-0.0198709 -0.0114686 0)
(-0.011718 -0.00491074 0)
(-0.000103207 0.00445925 0)
(0.0110782 0.0137623 0)
(0.0226818 0.0208681 0)
(0.0398939 0.0277402 0)
(0.0554267 0.0224424 0)
(0.0795689 0.00564832 0)
(0.146407 0.0479758 0)
(-0.42834 0.212664 0)
(1.06591 0.444168 0)
(0.518239 0.298303 0)
(0.529534 0.249859 0)
(0.518393 0.182905 0)
(0.46984 0.122437 0)
(0.433161 0.0601117 0)
(0.392052 -0.00742336 0)
(0.342849 -0.0669769 0)
(0.289093 -0.107856 0)
(0.232756 -0.126604 0)
(0.175375 -0.125094 0)
(0.118918 -0.108911 0)
(0.065472 -0.0822846 0)
(0.0202499 -0.0512544 0)
(-0.0160965 -0.0208157 0)
(-0.0329513 -0.00603328 0)
(-0.0401351 0.000469005 0)
(-0.0416864 0.00222179 0)
(-0.0420648 0.00101256 0)
(-0.0432084 -0.00164021 0)
(-0.0458388 -0.00452426 0)
(-0.0494881 -0.00706192 0)
(-0.0535107 -0.00915501 0)
(-0.0573735 -0.0108839 0)
(-0.0608199 -0.0123849 0)
(-0.0640126 -0.0137635 0)
(-0.0673556 -0.0148588 0)
(-0.071224 -0.0153123 0)
(-0.0759711 -0.0146394 0)
(-0.0820699 -0.0121868 0)
(-0.0902121 -0.00711762 0)
(-0.101122 0.00142704 0)
(-0.112755 0.013322 0)
(-0.127986 0.0284146 0)
(-0.152909 0.0467851 0)
(-0.190233 0.0673935 0)
(-0.241634 0.086224 0)
(-0.297564 0.0999148 0)
(-0.371649 0.106906 0)
(-0.650668 0.106297 0)
(0.233928 0.0528301 0)
(0.305892 0.115959 0)
(0.321219 0.0913624 0)
(0.299645 0.0395731 0)
(0.27505 -0.0106057 0)
(0.244391 -0.0469396 0)
(0.203104 -0.0684092 0)
(0.15401 -0.0754096 0)
(0.100444 -0.0686963 0)
(0.0461735 -0.0529169 0)
(-0.00862107 -0.0295103 0)
(-0.0451329 -0.0114729 0)
(-0.0635974 -0.00309495 0)
(-0.0709217 -0.000712829 0)
(-0.0731467 -0.000252361 0)
(-0.0734607 -0.000960916 0)
(-0.073763 -0.00256725 0)
(-0.0749049 -0.00466667 0)
(-0.0771223 -0.00676221 0)
(-0.0803772 -0.00855349 0)
(-0.0841703 -0.0100287 0)
(-0.0882762 -0.0111522 0)
(-0.0927061 -0.0119281 0)
(-0.097613 -0.0123204 0)
(-0.103147 -0.0121419 0)
(-0.109341 -0.0110481 0)
(-0.116061 -0.00856942 0)
(-0.122964 -0.00416198 0)
(-0.129428 0.00273552 0)
(-0.134402 0.0123348 0)
(-0.13837 0.0256167 0)
(-0.141806 0.0431794 0)
(-0.146017 0.0642232 0)
(-0.151771 0.0850527 0)
(-0.155356 0.0955486 0)
(-0.1413 0.0734016 0)
(-0.110238 -0.0250096 0)
(-0.286612 -0.213742 0)
(0.120031 0.324333 0)
(0.00839046 0.203589 0)
(0.0392633 0.118444 0)
(0.0584762 0.0604296 0)
(0.0631232 0.0216195 0)
(0.0601086 -0.00478893 0)
(0.040196 -0.0199097 0)
(0.00542066 -0.0189491 0)
(-0.0365948 -0.001726 0)
(-0.0701135 0.0128694 0)
(-0.0912274 0.0208748 0)
(-0.100238 0.0232642 0)
(-0.102448 0.0233923 0)
(-0.102381 0.0234377 0)
(-0.1015 0.0241362 0)
(-0.100467 0.0252504 0)
(-0.0997483 0.0263856 0)
(-0.0996269 0.0271333 0)
(-0.100156 0.027067 0)
(-0.101299 0.0258536 0)
(-0.103093 0.023831 0)
(-0.105469 0.021598 0)
(-0.108364 0.0194271 0)
(-0.111686 0.0174671 0)
(-0.115299 0.0158233 0)
(-0.118986 0.0146071 0)
(-0.122438 0.0139563 0)
(-0.125171 0.0140285 0)
(-0.126369 0.0155201 0)
(-0.124863 0.0198888 0)
(-0.119074 0.0282957 0)
(-0.107617 0.0417406 0)
(-0.0903499 0.0602417 0)
(-0.0683151 0.0804261 0)
(-0.0434442 0.094838 0)
(-0.0075803 0.0857763 0)
(0.14694 0.0093031 0)
(-0.209929 -0.129685 0)
(-0.422116 -0.516027 0)
(-0.637316 -0.143277 0)
(-0.449398 0.177755 0)
(-0.357936 0.0560758 0)
(-0.213903 -0.00554224 0)
(-0.145619 -0.0477894 0)
(-0.117178 -0.0705333 0)
(-0.112999 -0.0713518 0)
(-0.122356 -0.0626757 0)
(-0.134869 -0.0549643 0)
(-0.140354 -0.0504932 0)
(-0.138596 -0.0490462 0)
(-0.134132 -0.0499177 0)
(-0.12894 -0.0527227 0)
(-0.124459 -0.056236 0)
(-0.120996 -0.0598719 0)
(-0.118182 -0.063507 0)
(-0.115756 -0.0671848 0)
(-0.113674 -0.0707593 0)
(-0.112012 -0.0737613 0)
(-0.11091 -0.0755584 0)
(-0.110536 -0.0757186 0)
(-0.110987 -0.0743364 0)
(-0.112214 -0.0719948 0)
(-0.11404 -0.0689239 0)
(-0.116241 -0.0652818 0)
(-0.118535 -0.061093 0)
(-0.120556 -0.0562831 0)
(-0.121824 -0.0506365 0)
(-0.121705 -0.043806 0)
(-0.119183 -0.0358177 0)
(-0.112351 -0.0266923 0)
(-0.0984042 -0.0158849 0)
(-0.0748429 -0.00248788 0)
(-0.0415493 0.0143632 0)
(0.00931865 0.0362844 0)
(0.0618678 0.0423464 0)
(0.1096 0.0240433 0)
(0.172059 -0.015944 0)
(-0.19629 -0.0826858 0)
)
;

boundaryField
{
    floor
    {
        type            noSlip;
    }
    ceiling
    {
        type            noSlip;
    }
    sWall
    {
        type            noSlip;
    }
    nWall
    {
        type            noSlip;
    }
    sideWalls
    {
        type            empty;
    }
    glass1
    {
        type            noSlip;
    }
    glass2
    {
        type            noSlip;
    }
    sun
    {
        type            noSlip;
    }
    Table_master
    {
        type            noSlip;
    }
    Table_slave
    {
        type            noSlip;
    }
    inlet
    {
        type            fixedValue;
        value           uniform (0.46194 -0.191342 0);
    }
    outlet
    {
        type            zeroGradient;
    }
}


// ************************************************************************* //
