/*--------------------------------*- C++ -*----------------------------------*\
  =========                 |
  \\      /  F ield         | OpenFOAM: The Open Source CFD Toolbox
   \\    /   O peration     | Website:  https://openfoam.org
    \\  /    A nd           | Version:  6
     \\/     M anipulation  |
\*---------------------------------------------------------------------------*/
FoamFile
{
    version     2.0;
    format      ascii;
    class       volVectorField;
    location    "8900";
    object      U;
}
// * * * * * * * * * * * * * * * * * * * * * * * * * * * * * * * * * * * * * //

dimensions      [0 1 -1 0 0 0 0];

internalField   nonuniform List<vector> 
778
(
(0.0709376 0.078612 0)
(-0.154145 0.0142737 0)
(0.267571 0.167479 0)
(-0.162356 0.0145342 0)
(-0.16491 0.0470896 0)
(0.443293 0.255333 0)
(-0.191697 0.012215 0)
(-0.143898 0.0481402 0)
(-0.201129 0.0840836 0)
(0.595991 0.328739 0)
(-0.217677 0.00863089 0)
(-0.178719 0.0443088 0)
(-0.114719 0.0823441 0)
(-0.25005 0.121884 0)
(0.72676 0.387965 0)
(-0.239513 0.00453764 0)
(-0.206279 0.0388908 0)
(-0.153249 0.0712798 0)
(-0.080602 0.114608 0)
(-0.300646 0.157701 0)
(0.834319 0.43737 0)
(-0.256539 5.17104e-05 0)
(-0.229278 0.0327683 0)
(-0.177395 0.0601617 0)
(-0.125147 0.0956961 0)
(-0.0448097 0.139749 0)
(-0.346836 0.191901 0)
(0.905429 0.48105 0)
(-0.268276 -0.00491796 0)
(-0.247589 0.0260082 0)
(-0.197149 0.0484997 0)
(-0.143345 0.0802673 0)
(-0.0984134 0.113428 0)
(-0.0118068 0.155822 0)
(-0.38573 0.222743 0)
(0.949394 0.52415 0)
(-0.274245 -0.0105636 0)
(-0.261077 0.018407 0)
(-0.21256 0.0360402 0)
(-0.158331 0.0649762 0)
(-0.109477 0.0944663 0)
(-0.0744891 0.123958 0)
(0.0111453 0.16006 0)
(-0.401405 0.23579 0)
(1.03069 0.516033 0)
(-0.273509 -0.0171764 0)
(-0.269477 0.00962738 0)
(-0.223774 0.0225252 0)
(-0.169925 0.0491406 0)
(-0.118804 0.0760752 0)
(-0.0782145 0.102445 0)
(-0.0532784 0.127556 0)
(0.0236693 0.135381 0)
(-0.154008 0.298818 0)
(0.796883 0.406549 0)
(-0.263671 -0.0255554 0)
(-0.272095 -0.000768524 0)
(-0.230726 0.00773516 0)
(-0.178356 0.0322598 0)
(-0.125755 0.0573293 0)
(-0.0817499 0.0818391 0)
(-0.0504353 0.104497 0)
(-0.028364 0.122251 0)
(0.0420256 0.160895 0)
(-0.00620056 0.324248 0)
(0.630837 0.230051 0)
(-0.239922 -0.0368794 0)
(-0.267905 -0.0129545 0)
(-0.232988 -0.00839095 0)
(-0.183577 0.0138184 0)
(-0.130529 0.0375902 0)
(-0.0837762 0.0611567 0)
(-0.0490378 0.0824436 0)
(-0.0243829 0.101206 0)
(0.0388554 0.125119 0)
(0.0932957 0.219796 0)
(0.00299682 0.303564 0)
(0.578592 0.123045 0)
(-0.199227 -0.0539497 0)
(-0.255941 -0.0275295 0)
(-0.229647 -0.0260779 0)
(-0.185155 -0.00659487 0)
(-0.133145 0.0161768 0)
(-0.0844689 0.0397245 0)
(-0.0467595 0.0605544 0)
(-0.0201763 0.0787992 0)
(0.0135711 0.0968134 0)
(0.110117 0.1569 0)
(0.114633 0.243683 0)
(-0.0179329 0.263832 0)
(0.632175 0.0541097 0)
(-0.157255 -0.0818235 0)
(-0.237551 -0.0469168 0)
(-0.220822 -0.046222 0)
(-0.182346 -0.0291994 0)
(-0.133197 -0.00747249 0)
(-0.0839004 0.0167106 0)
(-0.0439057 0.0382115 0)
(-0.0148216 0.056482 0)
(0.0104943 0.0711137 0)
(0.0766895 0.10991 0)
(0.149986 0.179657 0)
(0.117051 0.232956 0)
(0.0135152 0.20098 0)
(0.479554 0.0731555 0)
(-0.169161 -0.12002 0)
(-0.223171 -0.0729322 0)
(-0.207901 -0.0699297 0)
(-0.175557 -0.0543843 0)
(-0.130405 -0.0335056 0)
(-0.081444 -0.00884774 0)
(-0.0405425 0.0145713 0)
(-0.00938515 0.0338104 0)
(0.0164124 0.0478859 0)
(0.0600233 0.0720274 0)
(0.131824 0.126482 0)
(0.16886 0.178846 0)
(0.118365 0.200062 0)
(-0.131491 0.140738 0)
(0.731494 0.130968 0)
(-0.221856 -0.0898216 0)
(-0.194463 -0.0955434 0)
(-0.165345 -0.0821286 0)
(-0.124734 -0.0622764 0)
(-0.0778619 -0.0371416 0)
(-0.034643 -0.0119471 0)
(-0.00414174 0.00937596 0)
(0.0232318 0.0245658 0)
(0.0590273 0.0417758 0)
(0.118562 0.0819692 0)
(0.16998 0.129634 0)
(0.18052 0.160892 0)
(0.097533 0.137228 0)
(0.0770587 0.113581 0)
(-0.190682 -0.0503495 0)
(-0.177911 -0.111227 0)
(-0.152312 -0.109067 0)
(-0.115949 -0.0935148 0)
(-0.0720361 -0.0685341 0)
(-0.029149 -0.0416167 0)
(0.00633473 -0.0203004 0)
(0.0326997 -0.0017999 0)
(0.0633612 0.0143021 0)
(0.115741 0.0444865 0)
(0.167258 0.085601 0)
(0.196774 0.121255 0)
(0.178063 0.12035 0)
(0.147742 0.0991641 0)
(-0.120847 -0.0493966 0)
(-0.145133 -0.102924 0)
(-0.134104 -0.127547 0)
(-0.103506 -0.123808 0)
(-0.0635386 -0.102938 0)
(-0.0215704 -0.074982 0)
(0.0146077 -0.0506524 0)
(0.0442318 -0.0309033 0)
(0.0741683 -0.0140965 0)
(0.117908 0.010791 0)
(0.168197 0.0457756 0)
(0.20331 0.0818804 0)
(0.210095 0.0990766 0)
(0.22561 0.0826251 0)
(0.211811 0.077963 0)
(-0.111256 -0.0608752 0)
(-0.100289 -0.111592 0)
(-0.107728 -0.135276 0)
(-0.0863987 -0.147279 0)
(-0.0517876 -0.137106 0)
(-0.0119285 -0.111971 0)
(0.024753 -0.0851442 0)
(0.0552756 -0.0618799 0)
(0.085408 -0.043313 0)
(0.124521 -0.0213217 0)
(0.171029 0.009041 0)
(0.208697 0.0431406 0)
(0.224818 0.0690021 0)
(0.250287 0.073351 0)
(0.242852 0.0911819 0)
(0.361299 0.203682 0)
(-0.0939427 -0.130574 0)
(-0.0797227 -0.143648 0)
(-0.0648515 -0.161578 0)
(-0.0368836 -0.165006 0)
(-0.000377117 -0.149251 0)
(0.0360583 -0.123082 0)
(0.0673949 -0.0966945 0)
(0.0971802 -0.0747525 0)
(0.132632 -0.0530356 0)
(0.175227 -0.0258462 0)
(0.213553 0.0060586 0)
(0.234994 0.034199 0)
(0.256838 0.0523168 0)
(0.264125 0.0669485 0)
(0.181899 0.174999 0)
(-0.241833 -0.0146657 0)
(-0.0637756 -0.140228 0)
(-0.0426471 -0.16867 0)
(-0.0199243 -0.182352 0)
(0.0121109 -0.17961 0)
(0.0473001 -0.16002 0)
(0.0797458 -0.134262 0)
(0.109784 -0.109526 0)
(0.142536 -0.0861002 0)
(0.180867 -0.0600877 0)
(0.218355 -0.0301561 0)
(0.244184 -0.00173093 0)
(0.26452 0.0229538 0)
(0.263899 0.0386047 0)
(0.149561 0.116831 0)
(-0.109274 0.0921665 0)
(-0.368512 -0.541659 0)
(-0.348472 -0.10559 0)
(-0.0213947 -0.0651058 0)
(-0.0225838 -0.162405 0)
(-0.00265745 -0.188196 0)
(0.0244684 -0.197565 0)
(0.057297 -0.189675 0)
(0.0905785 -0.169872 0)
(0.121753 -0.145692 0)
(0.153357 -0.120927 0)
(0.188326 -0.0947628 0)
(0.223833 -0.0659073 0)
(0.252406 -0.0374994 0)
(0.274585 -0.00997316 0)
(0.267712 0.0115969 0)
(0.144494 0.0647373 0)
(-0.0657716 0.0685866 0)
(-0.274548 0.0460288 0)
(0.438937 -0.395732 0)
(-0.387323 -0.290924 0)
(-0.344512 -0.255794 0)
(0.0406764 -0.101604 0)
(0.00987463 -0.128537 0)
(0.0138808 -0.179411 0)
(0.0361466 -0.202308 0)
(0.06554 -0.20716 0)
(0.0983682 -0.197396 0)
(0.130737 -0.178227 0)
(0.162552 -0.154771 0)
(0.195664 -0.12888 0)
(0.229166 -0.100557 0)
(0.258324 -0.0716401 0)
(0.280502 -0.0419437 0)
(0.269164 -0.0135463 0)
(0.135667 0.0238456 0)
(-0.0481734 0.0374115 0)
(-0.224081 0.0842384 0)
(-0.342197 -0.175739 0)
(0.149933 -0.173197 0)
(-0.253615 -0.315938 0)
(0.0774581 -0.0908529 0)
(0.0538039 -0.0847329 0)
(0.0417888 -0.122348 0)
(0.0340228 -0.157144 0)
(0.0468869 -0.193754 0)
(0.0718713 -0.210791 0)
(0.102461 -0.212336 0)
(0.134879 -0.201552 0)
(0.167136 -0.182682 0)
(0.199424 -0.158873 0)
(0.231165 -0.131486 0)
(0.258991 -0.101843 0)
(0.277972 -0.0695465 0)
(0.259153 -0.0352952 0)
(0.120387 -0.00526248 0)
(-0.0465058 0.0191242 0)
(-0.196506 0.0804636 0)
(-0.327375 -0.133914 0)
(1.13696 0.00273242 0)
(0.0962925 -0.054732 0)
(0.0504147 -0.0651648 0)
(0.0700213 -0.0636191 0)
(0.0594633 -0.103216 0)
(0.0537227 -0.139481 0)
(0.0582251 -0.174539 0)
(0.0764239 -0.201399 0)
(0.103015 -0.213396 0)
(0.133562 -0.212092 0)
(0.165199 -0.200143 0)
(0.196522 -0.180442 0)
(0.22627 -0.155034 0)
(0.251117 -0.125203 0)
(0.264052 -0.0904809 0)
(0.236285 -0.051887 0)
(0.10165 -0.0198802 0)
(-0.0523306 0.00703621 0)
(-0.182019 0.0697258 0)
(-0.299925 -0.121159 0)
(0.0783488 -0.0147658 0)
(0.0522841 -0.0401991 0)
(0.0670585 -0.0459764 0)
(0.0864786 -0.0439987 0)
(0.0741976 -0.0804188 0)
(0.0676604 -0.117537 0)
(0.0688517 -0.152243 0)
(0.0799241 -0.182005 0)
(0.100682 -0.20195 0)
(0.127344 -0.209278 0)
(0.156515 -0.204917 0)
(0.185694 -0.190722 0)
(0.212523 -0.168462 0)
(0.233016 -0.13942 0)
(0.238509 -0.103543 0)
(0.202507 -0.0622642 0)
(0.077982 -0.0251049 0)
(-0.0606556 -0.00156691 0)
(-0.176697 0.0605013 0)
(-0.274952 -0.122587 0)
(0.0372038 -0.0180894 0)
(0.0679285 -0.0290787 0)
(0.0839614 -0.0302259 0)
(0.100339 -0.0249854 0)
(0.0879791 -0.0585535 0)
(0.0786881 -0.0932924 0)
(0.0765398 -0.127221 0)
(0.0822568 -0.157467 0)
(0.0963849 -0.181153 0)
(0.11743 -0.194944 0)
(0.142233 -0.197424 0)
(0.167621 -0.189086 0)
(0.190301 -0.170979 0)
(0.205397 -0.143942 0)
(0.203519 -0.108462 0)
(0.162042 -0.0667464 0)
(0.0515841 -0.0269266 0)
(-0.0710271 -0.00751959 0)
(-0.176959 0.0557672 0)
(-0.256432 -0.129413 0)
(0.0597088 -0.0153936 0)
(0.0856713 -0.019161 0)
(0.0934089 -0.0166227 0)
(0.115403 -0.0162992 0)
(0.10029 -0.0390723 0)
(0.0882718 -0.0698111 0)
(0.0820817 -0.101205 0)
(0.0828524 -0.130432 0)
(0.0907377 -0.15503 0)
(0.10522 -0.172319 0)
(0.124135 -0.179943 0)
(0.144254 -0.176953 0)
(0.161627 -0.163395 0)
(0.170863 -0.139738 0)
(0.162525 -0.10632 0)
(0.118532 -0.0659957 0)
(0.0230468 -0.0273965 0)
(-0.0841347 -0.0111698 0)
(-0.179858 0.0558005 0)
(-0.24394 -0.138032 0)
(0.0824892 -0.01135 0)
(0.0954719 -0.0102294 0)
(0.0920355 -0.0129129 0)
(0.129308 -0.0109565 0)
(0.111758 -0.0239821 0)
(0.0966256 -0.0488311 0)
(0.0864075 -0.0764008 0)
(0.0821578 -0.103151 0)
(0.0841055 -0.126812 0)
(0.0918887 -0.145082 0)
(0.104107 -0.155711 0)
(0.11789 -0.15688 0)
(0.12926 -0.147777 0)
(0.132492 -0.128205 0)
(0.11915 -0.0987232 0)
(0.0751258 -0.0615236 0)
(-0.00881603 -0.0258643 0)
(-0.0984374 -0.013366 0)
(-0.183314 0.0593503 0)
(-0.235453 -0.147842 0)
(0.0957879 -0.00765199 0)
(0.0987881 -0.00332856 0)
(0.0880634 -0.00830226 0)
(0.136951 -0.007081 0)
(0.120781 -0.013167 0)
(0.103665 -0.0315758 0)
(0.0899362 -0.0543422 0)
(0.0808966 -0.0776224 0)
(0.0770986 -0.0990272 0)
(0.0783936 -0.116534 0)
(0.0837119 -0.128115 0)
(0.0907791 -0.131978 0)
(0.0957269 -0.126596 0)
(0.0934005 -0.111407 0)
(0.0758379 -0.0865767 0)
(0.0339014 -0.0544024 0)
(-0.0385779 -0.0231042 0)
(-0.112907 -0.015238 0)
(-0.186025 0.0648532 0)
(-0.229235 -0.15965 0)
(0.10179 -0.00465386 0)
(0.0989605 0.000224066 0)
(0.0856978 -0.0058841 0)
(0.139235 -0.00411751 0)
(0.125706 -0.00539441 0)
(0.108702 -0.0184035 0)
(0.0927098 -0.035848 0)
(0.0795845 -0.0551563 0)
(0.0704583 -0.0736213 0)
(0.065597 -0.0892182 0)
(0.0643174 -0.100334 0)
(0.0646456 -0.105243 0)
(0.0634616 -0.102657 0)
(0.0556848 -0.0913505 0)
(0.0355934 -0.0714985 0)
(-0.00577424 -0.0445394 0)
(-0.064822 -0.0196832 0)
(-0.126217 -0.0177203 0)
(-0.18756 0.0707358 0)
(-0.224408 -0.173794 0)
(0.103856 -0.00304056 0)
(0.0987376 0.00163461 0)
(0.0851711 -0.00454884 0)
(0.137398 -0.00154006 0)
(0.126933 0.00070922 0)
(0.1113 -0.00823719 0)
(0.0944982 -0.0209308 0)
(0.0784379 -0.0362925 0)
(0.064779 -0.0516927 0)
(0.0543604 -0.0650183 0)
(0.0469664 -0.0747126 0)
(0.0411982 -0.0796871 0)
(0.0340424 -0.078487 0)
(0.0220101 -0.0705221 0)
(-0.0010881 -0.0548828 0)
(-0.0378529 -0.0348026 0)
(-0.0864132 -0.0164325 0)
(-0.137442 -0.0203365 0)
(-0.188169 0.0750772 0)
(-0.220779 -0.188883 0)
(0.104331 -0.00233361 0)
(0.098843 0.00221082 0)
(0.0854029 -0.00370408 0)
(0.132167 0.000938173 0)
(0.125015 0.00594778 0)
(0.111531 0.000162005 0)
(0.0951156 -0.00886668 0)
(0.0774165 -0.0208225 0)
(0.0603635 -0.0335199 0)
(0.0453278 -0.0447697 0)
(0.0326925 -0.0530559 0)
(0.0214924 -0.0573134 0)
(0.00978588 -0.0571039 0)
(-0.00674557 -0.0509038 0)
(-0.0296291 -0.0406351 0)
(-0.0612874 -0.0273189 0)
(-0.102331 -0.014519 0)
(-0.145636 -0.0230138 0)
(-0.188448 0.0762542 0)
(-0.218571 -0.201834 0)
(0.104342 -0.00197702 0)
(0.0990548 0.00252557 0)
(0.0859018 -0.0030645 0)
(0.123487 0.00360942 0)
(0.120455 0.0109019 0)
(0.109638 0.00769802 0)
(0.0944205 0.00132287 0)
(0.0763727 -0.00804719 0)
(0.0572076 -0.0186522 0)
(0.038773 -0.028449 0)
(0.022064 -0.0358103 0)
(0.00688383 -0.0399127 0)
(-0.00887678 -0.0397649 0)
(-0.0260819 -0.0371549 0)
(-0.0481646 -0.0312795 0)
(-0.0772391 -0.0226761 0)
(-0.113429 -0.0136197 0)
(-0.151303 -0.0256319 0)
(-0.189051 0.0762528 0)
(-0.218177 -0.209772 0)
(0.104144 -0.00171209 0)
(0.099167 0.00282265 0)
(0.0867883 -0.00237219 0)
(0.110599 0.00696864 0)
(0.113327 0.0161198 0)
(0.105945 0.0149301 0)
(0.0925253 0.0104189 0)
(0.0749818 0.00290225 0)
(0.0550863 -0.00624539 0)
(0.0345562 -0.0152718 0)
(0.0151346 -0.0225371 0)
(-0.00280117 -0.0269404 0)
(-0.0196639 -0.0289237 0)
(-0.0377395 -0.0284418 0)
(-0.0595887 -0.0256326 0)
(-0.087399 -0.0201712 0)
(-0.121176 -0.0132414 0)
(-0.155761 -0.0277826 0)
(-0.190463 0.0762621 0)
(-0.219678 -0.213752 0)
(0.103698 -0.00144522 0)
(0.0991436 0.00337581 0)
(0.0888316 -0.00111766 0)
(0.0904986 0.0117812 0)
(0.103598 0.0223396 0)
(0.100649 0.0224088 0)
(0.0896361 0.0189724 0)
(0.0733157 0.012681 0)
(0.0535065 0.00452865 0)
(0.0322241 -0.00416595 0)
(0.011262 -0.0119299 0)
(-0.0079946 -0.0175647 0)
(-0.02587 -0.0211961 0)
(-0.0443507 -0.0226438 0)
(-0.0663986 -0.0218487 0)
(-0.0940285 -0.0186458 0)
(-0.126996 -0.0129339 0)
(-0.160003 -0.0293767 0)
(-0.19271 0.0767088 0)
(-0.222376 -0.214872 0)
(0.102864 -0.00106524 0)
(0.0989029 0.00472779 0)
(0.0939531 0.00348481 0)
(0.0752201 0.038321 0)
(0.0908414 0.0309218 0)
(0.09402 0.030787 0)
(0.0859538 0.0275064 0)
(0.0713603 0.0217881 0)
(0.0524556 0.0142221 0)
(0.0311508 0.00567132 0)
(0.00959914 -0.00270204 0)
(-0.0104659 -0.00971972 0)
(-0.0290335 -0.0148494 0)
(-0.0481009 -0.0178504 0)
(-0.0704973 -0.0188273 0)
(-0.0985416 -0.0173126 0)
(-0.131747 -0.0124503 0)
(-0.164422 -0.0304983 0)
(-0.195548 0.0772926 0)
(-0.225521 -0.214438 0)
(0.101275 -0.000333753 0)
(0.0976443 0.00823114 0)
(0.092409 0.0265068 0)
(0.0632485 0.0631643 0)
(0.0782551 0.0497066 0)
(0.0863792 0.0409938 0)
(0.0817827 0.0365399 0)
(0.069187 0.0306698 0)
(0.0516271 0.023298 0)
(0.0310701 0.0147438 0)
(0.00948695 0.00584538 0)
(-0.011165 -0.00232806 0)
(-0.0303597 -0.00883696 0)
(-0.0499739 -0.013314 0)
(-0.0728891 -0.0158416 0)
(-0.101641 -0.0158697 0)
(-0.135692 -0.0118084 0)
(-0.16896 -0.0311878 0)
(-0.19871 0.077509 0)
(-0.228632 -0.213288 0)
(0.0980093 0.00130131 0)
(0.0918749 0.0176897 0)
(0.0754788 0.0446091 0)
(0.0782687 0.0874362 0)
(0.0669678 0.0746605 0)
(0.0797483 0.0562124 0)
(0.0775568 0.0466275 0)
(0.0669748 0.0396944 0)
(0.0509118 0.0321186 0)
(0.0314626 0.0234628 0)
(0.0103961 0.0141111 0)
(-0.0105023 0.00499497 0)
(-0.0303883 -0.00272763 0)
(-0.0505177 -0.00861372 0)
(-0.0739567 -0.0126301 0)
(-0.103583 -0.0141752 0)
(-0.138837 -0.0110744 0)
(-0.17336 -0.0314499 0)
(-0.201976 0.0769853 0)
(-0.23159 -0.211752 0)
(0.0911884 0.00463963 0)
(0.0776303 0.0268935 0)
(0.071378 0.0608882 0)
(-0.115897 0.143524 0)
(0.0980819 0.103925 0)
(0.0736599 0.0769876 0)
(0.0747105 0.059054 0)
(0.0650175 0.049143 0)
(0.0503086 0.0409214 0)
(0.0321039 0.0320819 0)
(0.0118645 0.0223764 0)
(-0.0089613 0.0124546 0)
(-0.0292777 0.00363169 0)
(-0.0499916 -0.00355907 0)
(-0.0738803 -0.00903258 0)
(-0.104417 -0.0121463 0)
(-0.141099 -0.0102722 0)
(-0.177337 -0.0312702 0)
(-0.205171 0.0755395 0)
(-0.234539 -0.20984 0)
(0.0786952 0.00859947 0)
(0.064986 0.0354039 0)
(-0.0888002 0.105593 0)
(0.0201737 0.144967 0)
(0.0953528 0.103442 0)
(0.0726115 0.074196 0)
(0.0642062 0.0594538 0)
(0.0498906 0.0498092 0)
(0.0328437 0.0407435 0)
(0.0136765 0.0307742 0)
(-0.0067635 0.0201831 0)
(-0.0273768 0.0103273 0)
(-0.0484396 0.00193642 0)
(-0.0727661 -0.00492032 0)
(-0.104135 -0.0096746 0)
(-0.142362 -0.00938822 0)
(-0.180637 -0.0306251 0)
(-0.20815 0.0731207 0)
(-0.237749 -0.207394 0)
(0.0632566 0.0129329 0)
(-0.0498971 0.0667276 0)
(0.100176 0.187873 0)
(0.0769082 0.113155 0)
(0.0851096 0.0937607 0)
(0.0643321 0.0705317 0)
(0.050052 0.0588156 0)
(0.0335048 0.0495015 0)
(0.0156308 0.0394139 0)
(-0.00406366 0.0282365 0)
(-0.024729 0.0174228 0)
(-0.0462285 0.00787724 0)
(-0.0706742 -0.000188418 0)
(-0.102719 -0.00661184 0)
(-0.142483 -0.00835482 0)
(-0.183015 -0.0294846 0)
(-0.210786 0.0697056 0)
(-0.241506 -0.204181 0)
(-0.00488415 0.0317363 0)
(0.141843 0.149741 0)
(0.0938174 0.0525666 0)
(0.0877122 0.0973082 0)
(0.0724974 0.0839452 0)
(0.0506381 0.0674793 0)
(0.0338937 0.058328 0)
(0.0174269 0.0484537 0)
(-0.00101252 0.0367635 0)
(-0.0214447 0.0249549 0)
(-0.0432879 0.0142906 0)
(-0.0679069 0.00512924 0)
(-0.100164 -0.00277506 0)
(-0.141289 -0.00700819 0)
(-0.184195 -0.0278022 0)
(-0.21295 0.065224 0)
(-0.246068 -0.199937 0)
(-0.222788 0.206738 0)
(0.148589 -0.0357132 0)
(0.0931225 0.0583996 0)
(0.082065 0.0868324 0)
(0.0554503 0.0758664 0)
(0.0329536 0.0668968 0)
(0.0185954 0.0581547 0)
(0.00222287 0.0461599 0)
(-0.0176091 0.0330555 0)
(-0.0397324 0.0212186 0)
(-0.0646826 0.011007 0)
(-0.0964004 0.00197644 0)
(-0.138615 -0.00503253 0)
(-0.183856 -0.0254894 0)
(-0.214509 0.0595932 0)
(-0.25167 -0.194411 0)
(-0.327012 0.108274 0)
(0.183881 0.0285161 0)
(0.0827595 0.0651922 0)
(0.0651576 0.0729743 0)
(0.0307661 0.0750838 0)
(0.0179008 0.0689849 0)
(0.00524301 0.0568335 0)
(-0.0132294 0.0420854 0)
(-0.0356716 0.0287449 0)
(-0.0610636 0.0175331 0)
(-0.0924041 0.00755891 0)
(-0.134337 -0.00196778 0)
(-0.181683 -0.022367 0)
(-0.215316 0.0528863 0)
(-0.258571 -0.187377 0)
(-0.281679 0.158493 0)
(0.241968 0.0587483 0)
(0.0612242 0.0408425 0)
(0.0155887 0.0767838 0)
(0.0147309 0.0825631 0)
(0.00734888 0.0701484 0)
(-0.00834551 0.0527131 0)
(-0.0311333 0.0371239 0)
(-0.0574018 0.0248246 0)
(-0.088141 0.0140754 0)
(-0.128331 0.00260962 0)
(-0.177463 -0.0181006 0)
(-0.215222 0.0455349 0)
(-0.267015 -0.178622 0)
(-0.550218 0.23797 0)
(0.291501 0.0734162 0)
(0.00424195 0.104759 0)
(-0.0105215 0.105577 0)
(0.00948776 0.089202 0)
(-0.00332609 0.0667457 0)
(-0.0261387 0.0471161 0)
(-0.0540896 0.0332386 0)
(-0.0841559 0.0218522 0)
(-0.121932 0.0087703 0)
(-0.171167 -0.0121817 0)
(-0.214064 0.0383819 0)
(-0.277087 -0.167949 0)
(-0.758999 0.312475 0)
(0.0228163 0.181331 0)
(-0.0104699 0.158479 0)
(-0.00399876 0.122775 0)
(0.00310288 0.0888706 0)
(-0.0213689 0.0614004 0)
(-0.0514228 0.0439079 0)
(-0.0810967 0.0314722 0)
(-0.115703 0.0167958 0)
(-0.162804 -0.00406081 0)
(-0.211629 0.0324889 0)
(-0.288448 -0.155211 0)
(-0.645124 0.305151 0)
(0.0219793 0.18982 0)
(-0.0131348 0.189972 0)
(0.00335397 0.123902 0)
(-0.0169435 0.0841871 0)
(-0.0502133 0.0595646 0)
(-0.0791271 0.0441855 0)
(-0.10993 0.0273308 0)
(-0.153292 0.00645766 0)
(-0.20754 0.0287951 0)
(-0.300089 -0.140382 0)
(-0.550094 0.172825 0)
(0.135036 0.207113 0)
(-0.00835118 0.183607 0)
(-0.0118473 0.111883 0)
(-0.0522499 0.081557 0)
(-0.0787522 0.0621591 0)
(-0.10417 0.0414201 0)
(-0.143757 0.0192002 0)
(-0.200893 0.0276649 0)
(-0.310294 -0.123587 0)
(-0.49171 0.0849956 0)
(0.181217 0.205741 0)
(-0.0126341 0.145857 0)
(-0.053408 0.101498 0)
(-0.0842361 0.0864768 0)
(-0.0970206 0.0606832 0)
(-0.132798 0.0339309 0)
(-0.190548 0.0285319 0)
(-0.316896 -0.10507 0)
(-0.372578 0.130524 0)
(0.194627 0.181449 0)
(-0.0356215 0.114414 0)
(-0.0948626 0.111292 0)
(-0.0899898 0.0869071 0)
(-0.117777 0.0513049 0)
(-0.177661 0.0300525 0)
(-0.317528 -0.0852593 0)
(-0.355038 0.194335 0)
(0.108491 0.164701 0)
(-0.0861674 0.12776 0)
(-0.0859483 0.120552 0)
(-0.0961101 0.0719298 0)
(-0.159924 0.0325614 0)
(-0.310259 -0.065199 0)
(-0.463558 0.243195 0)
(-0.0857827 0.154525 0)
(-0.0558077 0.153969 0)
(-0.0678361 0.0976421 0)
(-0.133476 0.0346382 0)
(-0.296936 -0.047533 0)
(-0.556769 0.188637 0)
(0.0195734 0.147806 0)
(-0.0255944 0.133292 0)
(-0.0934417 0.0336558 0)
(-0.278102 -0.0324754 0)
(-0.575794 0.0275271 0)
(0.150851 0.142805 0)
(-0.0348723 0.0360841 0)
(-0.248004 -0.0177742 0)
(-0.419369 0.0569571 0)
(0.175687 0.0766711 0)
(-0.197119 0.00711768 0)
(-0.391494 0.117426 0)
(-0.17284 0.0574255 0)
(-0.575101 0.117235 0)
)
;

boundaryField
{
    floor
    {
        type            noSlip;
    }
    ceiling
    {
        type            noSlip;
    }
    sWall
    {
        type            noSlip;
    }
    nWall
    {
        type            noSlip;
    }
    sideWalls
    {
        type            empty;
    }
    glass1
    {
        type            noSlip;
    }
    glass2
    {
        type            noSlip;
    }
    sun
    {
        type            noSlip;
    }
    Table_master
    {
        type            noSlip;
    }
    Table_slave
    {
        type            noSlip;
    }
    inlet
    {
        type            fixedValue;
        value           uniform (0.5 0 0);
    }
    outlet
    {
        type            zeroGradient;
    }
}


// ************************************************************************* //
