/*--------------------------------*- C++ -*----------------------------------*\
  =========                 |
  \\      /  F ield         | OpenFOAM: The Open Source CFD Toolbox
   \\    /   O peration     | Website:  https://openfoam.org
    \\  /    A nd           | Version:  6
     \\/     M anipulation  |
\*---------------------------------------------------------------------------*/
FoamFile
{
    version     2.0;
    format      ascii;
    class       volScalarField;
    location    "9800";
    object      alphat;
}
// * * * * * * * * * * * * * * * * * * * * * * * * * * * * * * * * * * * * * //

dimensions      [1 -1 -1 0 0 0 0];

internalField   nonuniform List<scalar> 
778
(
0.000977057
0.00103557
0.0014342
0.00103387
0.00254307
0.0018265
0.00107701
0.00213093
0.00357085
0.00221335
0.00111549
0.00240282
0.00247214
0.00494245
0.00260236
0.00114967
0.00257968
0.00344105
0.00235431
0.00674564
0.00299034
0.00118079
0.00277008
0.00376471
0.00391105
0.00239036
0.00882384
0.00338962
0.00121013
0.00295902
0.00405522
0.00438464
0.00379028
0.00290739
0.0107856
0.00374676
0.00123899
0.00313105
0.00432062
0.00466029
0.00454683
0.00323119
0.00407427
0.0123052
0.003862
0.00126892
0.00326756
0.00455111
0.00486357
0.00476778
0.00442213
0.00262923
0.00584281
0.0118682
0.00380124
0.00129906
0.00334711
0.00473972
0.0050023
0.00484684
0.00465002
0.00406879
0.00253064
0.00754393
0.00962876
0.00357973
0.00132912
0.00338476
0.00487712
0.00508691
0.00482798
0.0046191
0.00446946
0.00329739
0.00354677
0.00793088
0.00824291
0.00327282
0.00136087
0.00335671
0.00498166
0.00513412
0.00474126
0.00445415
0.0044109
0.00408619
0.00220837
0.00517568
0.00771929
0.00741765
0.00298718
0.0013974
0.00321801
0.0050942
0.00518627
0.00463855
0.0042027
0.00417581
0.0041848
0.0027071
0.00324276
0.00606615
0.00746171
0.00661719
0.00298837
0.00143819
0.00288124
0.00520904
0.00532843
0.00459969
0.0039571
0.00381727
0.00401576
0.00321102
0.00238596
0.00455307
0.00649003
0.00712332
0.00657524
0.0026996
0.00225697
0.00529319
0.00558892
0.00471329
0.00385492
0.00343446
0.00366648
0.00330921
0.002196
0.00356543
0.00545099
0.00666046
0.00722927
0.00280575
0.00157277
0.00526334
0.00596933
0.00501178
0.00396566
0.00330195
0.00306229
0.0030276
0.00228668
0.00305999
0.00466424
0.00599451
0.00668728
0.00277244
0.00153413
0.00488778
0.00640271
0.00550929
0.00428427
0.00346914
0.00301986
0.0027963
0.00248773
0.00291379
0.00418764
0.0054295
0.00614471
0.00345133
0.000230314
0.00150659
0.00371537
0.00666325
0.00618712
0.00481094
0.00383383
0.00329252
0.00298014
0.00280002
0.00306605
0.00399119
0.00504177
0.00569232
0.00385052
0.000119033
0.00323807
0.00179285
0.00629446
0.00695148
0.00555166
0.0043852
0.00371075
0.0033352
0.00317135
0.00333649
0.00398334
0.00482376
0.00534543
0.00398018
0.000151013
0.000492168
0.00295028
0.00472207
0.00767548
0.0064544
0.00515679
0.00427535
0.00378039
0.00355622
0.00361785
0.00403613
0.004652
0.00504586
0.00392851
0.000273975
0.000319547
0.00108242
0.00463166
0.00522767
0.00185654
0.00823056
0.00745171
0.00610104
0.00504313
0.00436797
0.00400218
0.00391344
0.00410983
0.00447493
0.0046482
0.00362929
0.000373136
0.000460956
0.00254662
0.00632008
0.00284516
0.00454973
0.00216046
0.00500926
0.00811209
0.00840849
0.00713123
0.00600838
0.00517366
0.0046256
0.00433902
0.00429392
0.00438936
0.00431881
0.00332519
0.000597501
0.00156122
0.00633002
0.00765163
0.00221885
0.00277448
0.00224621
0.00166732
0.00697984
0.00855631
0.00897884
0.00809595
0.00706001
0.00618544
0.00550728
0.00503737
0.00476414
0.00461202
0.00435175
0.00348091
0.00161501
0.00455249
0.00958402
0.00939028
0.00228303
0.00271247
0.00137542
0.00401295
0.00780983
0.00890337
0.0091984
0.00878347
0.0080202
0.00726825
0.00659851
0.00604892
0.00563701
0.00533135
0.00500564
0.00442547
0.00376102
0.00799175
0.0117459
0.0105284
0.00226979
0.00102459
0.00253116
0.00549816
0.00792143
0.00901577
0.0092693
0.00910314
0.00870755
0.00822002
0.00771823
0.00724665
0.00684681
0.00653768
0.00630036
0.00613109
0.00654608
0.0106194
0.012951
0.0110176
0.00218328
0.00105569
0.00349752
0.00604377
0.00672902
0.00889272
0.00919345
0.00915688
0.00903484
0.00886094
0.00863563
0.00838231
0.00814676
0.00798256
0.00795063
0.00818559
0.00920258
0.0122342
0.0134606
0.011009
0.00205804
0.00106297
0.00398297
0.00536249
0.00154577
0.00839425
0.00899037
0.00901312
0.00904019
0.0091099
0.00917115
0.00919968
0.00921922
0.00928891
0.00949941
0.0100102
0.0111466
0.0130109
0.0134106
0.0106297
0.00192289
0.00104632
0.00393572
0.00137316
0.00140682
0.0068002
0.00867194
0.00874817
0.00881043
0.0089998
0.00926141
0.00953608
0.00980976
0.0101157
0.0105259
0.0111444
0.0120532
0.0130311
0.0127922
0.00993503
0.0017905
0.00101113
0.00306763
0.00119209
0.00130068
0.00592577
0.00816614
0.00843707
0.00845836
0.00863883
0.00896519
0.00937007
0.00980957
0.0102758
0.010789
0.0113658
0.0119159
0.0121351
0.0116003
0.00894493
0.00166262
0.000958599
0.00261773
0.00105331
0.00121218
0.00531428
0.00766319
0.00812115
0.00809494
0.00817227
0.00842805
0.00881464
0.00927489
0.0097719
0.0102668
0.0106954
0.0108786
0.0105608
0.00990985
0.00772613
0.0015421
0.000904307
0.00231011
0.00094538
0.00113692
0.00482668
0.00720126
0.00783472
0.00779627
0.00774048
0.00783705
0.00807491
0.00840943
0.00878269
0.0091425
0.00935409
0.00926266
0.00869757
0.00801643
0.00646293
0.00143858
0.00085346
0.00207744
0.000859999
0.00106955
0.00433205
0.00676549
0.00757878
0.00758894
0.007437
0.00736373
0.00739868
0.00750895
0.00765933
0.00777168
0.00778298
0.00754714
0.00692736
0.00636743
0.00542248
0.00136435
0.000807103
0.00188738
0.000791422
0.00100612
0.00384
0.00626821
0.00732346
0.00745264
0.00728316
0.00710631
0.00698652
0.00689763
0.00681516
0.00665042
0.00643209
0.00608825
0.00554343
0.00528002
0.00477852
0.0013246
0.000765466
0.00172553
0.000735743
0.000943101
0.00335401
0.00571402
0.00699953
0.00733531
0.00723592
0.00705302
0.0068927
0.00673107
0.00641415
0.00596167
0.0054834
0.00504932
0.00468659
0.00473984
0.00447316
0.00130975
0.0007279
0.00158275
0.000690758
0.000874916
0.00286832
0.00510223
0.00658255
0.00716656
0.00721956
0.00711008
0.00699901
0.00682666
0.00635808
0.00563789
0.00491689
0.004444
0.00426226
0.00452187
0.00436276
0.00130993
0.000693768
0.00144933
0.000656286
0.000820129
0.00237047
0.00442962
0.00605614
0.00689827
0.00715446
0.00716434
0.00713859
0.00698691
0.00646262
0.00555422
0.00464485
0.00413782
0.00406541
0.00443147
0.0043337
0.0013174
0.000662362
0.00131736
0.000728972
0.000854093
0.00183504
0.00369373
0.00541184
0.00649991
0.00698614
0.00713896
0.00718658
0.00709829
0.00659339
0.00560084
0.00454261
0.00397222
0.00395213
0.00436729
0.00432052
0.00132762
0.000632773
0.00119824
0.000863236
0.00145401
0.00141558
0.00290239
0.00465007
0.00595683
0.00668382
0.00700388
0.00712697
0.00709102
0.00667263
0.00568363
0.00451025
0.00385004
0.00385592
0.00429014
0.00429179
0.00133848
0.000603741
0.00109619
0.0013496
0.000765979
0.00143647
0.0021811
0.00379304
0.00526809
0.00623329
0.00674298
0.00697068
0.00698728
0.00665514
0.00573869
0.00448737
0.00372734
0.00375342
0.00419161
0.00423715
0.00134957
0.000573143
0.00121821
0.000696478
0.00113041
0.00167243
0.00294242
0.00445498
0.00563266
0.00634572
0.00670997
0.00680638
0.0065409
0.00572731
0.00444504
0.00359026
0.00364167
0.00407737
0.00415861
0.00136167
0.00054623
0.000615513
0.000906973
0.00130742
0.00215913
0.00358944
0.0048972
0.00580754
0.00633082
0.00653817
0.00634858
0.00560591
0.00436824
0.00344159
0.00352657
0.00395875
0.00406461
0.00137647
0.000493872
0.00118805
0.00145327
0.00161249
0.00271757
0.00406888
0.00513276
0.00581969
0.00615938
0.00606188
0.00539108
0.00421786
0.00329006
0.00341561
0.00384861
0.00396707
0.00139629
0.00114347
0.00252046
0.00145571
0.0019411
0.00314539
0.00431362
0.00516475
0.00563463
0.00564261
0.00504616
0.00397212
0.00313831
0.00331273
0.00375923
0.00388127
0.0014238
0.00136706
0.00256537
0.00133116
0.00189855
0.0030927
0.00429282
0.00494051
0.00503526
0.00450099
0.00360156
0.00295364
0.00321461
0.00370067
0.00382668
0.00146147
0.0016069
0.00361921
0.00166379
0.00140455
0.00271758
0.00398625
0.00419929
0.00370739
0.00305859
0.00272883
0.00310877
0.00367786
0.00382557
0.00151077
0.00208928
0.00546995
0.00330256
0.00150402
0.00251161
0.00317197
0.00278763
0.00241793
0.00244868
0.00299446
0.00368569
0.00389812
0.00157137
0.00240101
0.00521003
0.00373161
0.00166337
0.00216019
0.0020953
0.00195614
0.00217332
0.00287584
0.00370573
0.00405411
0.00164103
0.00242775
0.00505158
0.00383156
0.00193302
0.00191208
0.00190602
0.00207617
0.00277888
0.00373292
0.00427938
0.00171644
0.00240004
0.00556347
0.0039943
0.00242165
0.00229072
0.00231223
0.00278718
0.00379154
0.00451642
0.00179484
0.00238745
0.00565369
0.00453149
0.00316128
0.00289893
0.00302588
0.00392686
0.00472224
0.0018757
0.00253962
0.0057081
0.0049675
0.00376952
0.00356463
0.00420626
0.00496119
0.00195962
0.0025985
0.00613358
0.00474957
0.00433669
0.00470763
0.00531309
0.00204583
0.00256554
0.00524699
0.00506466
0.00548658
0.0058484
0.00213827
0.00243969
0.00529753
0.00652206
0.0066219
0.00224042
0.00238593
0.00677476
0.00780691
0.00235164
0.00262648
0.00739309
0.00247305
0.00280743
0.00260815
0.00255386
)
;

boundaryField
{
    floor
    {
        type            compressible::alphatWallFunction;
        Prt             0.85;
        value           nonuniform List<scalar> 
36
(
0.000202514
0.000145612
0.000149968
0.000150986
0.000148655
0.000143717
0.000136308
0.000128601
0.000121333
0.000114663
0.000108633
0.000103158
9.81551e-05
9.35253e-05
8.91389e-05
8.48108e-05
8.02216e-05
7.61603e-05
6.81875e-05
6.81866e-05
8.65698e-05
9.85545e-05
0.000108708
0.000128984
0.000168384
0.000162215
0.000202512
0.000220598
0.000215421
0.000211722
0.00014561
0.00021172
0.000194
0.000249808
0.000233191
0.000258187
)
;
    }
    ceiling
    {
        type            compressible::alphatWallFunction;
        Prt             0.85;
        value           nonuniform List<scalar> 
43
(
0.000368297
0.000308926
0.000297876
0.000305417
0.000313684
0.00031201
0.000300899
0.000284711
0.000267117
0.000249747
0.000232825
0.000216733
0.000202786
0.000192708
0.000187286
0.00018525
0.000185274
0.000186299
0.000187701
0.000189191
0.000190707
0.000192353
0.000194353
0.000197021
0.000200714
0.000205762
0.00021236
0.000220463
0.000229761
0.000239804
0.00025021
0.000260893
0.000271942
0.000283232
0.000295258
0.000308462
0.000322758
0.000338287
0.00035545
0.000348414
0.00036697
0.00038032
0.000433326
)
;
    }
    sWall
    {
        type            compressible::alphatWallFunction;
        Prt             0.85;
        value           nonuniform List<scalar> 9(0.000501729 0.000474679 0.000436919 0.000401454 0.000401595 0.000365393 0.000383103 0.000374287 0.000366574);
    }
    nWall
    {
        type            compressible::alphatWallFunction;
        Prt             0.85;
        value           nonuniform List<scalar> 
14
(
0.000161761
0.000192414
0.000224686
0.000331662
0.000328168
0.000326672
0.000346142
0.000353543
0.000348952
0.00033298
0.000326341
0.000357311
0.000379717
0.000347713
)
;
    }
    sideWalls
    {
        type            empty;
    }
    glass1
    {
        type            compressible::alphatWallFunction;
        Prt             0.85;
        value           nonuniform List<scalar> 9(0.000135076 0.000197106 0.000248724 0.000298558 0.000347823 0.000396257 0.000445466 0.000489022 0.000503105);
    }
    glass2
    {
        type            compressible::alphatWallFunction;
        Prt             0.85;
        value           nonuniform List<scalar> 2(0.000285846 0.00032582);
    }
    sun
    {
        type            compressible::alphatWallFunction;
        Prt             0.85;
        value           nonuniform List<scalar> 
14
(
0.000138961
0.000147168
0.000146927
0.000152963
0.000158323
0.000163067
0.000167372
0.000171418
0.000175388
0.000179493
0.000183617
0.000187719
0.000192039
0.000196997
)
;
    }
    Table_master
    {
        type            compressible::alphatWallFunction;
        Prt             0.85;
        value           nonuniform List<scalar> 9(0.000193976 0.000169189 0.000149902 0.000134698 0.000122527 0.000112647 0.000104551 9.79555e-05 9.28662e-05);
    }
    Table_slave
    {
        type            compressible::alphatWallFunction;
        Prt             0.85;
        value           nonuniform List<scalar> 9(0.000217265 0.000198545 0.000184106 0.000171963 0.000161558 0.000152176 0.000143281 0.000134378 0.000124666);
    }
    inlet
    {
        type            fixedValue;
        value           uniform 1.94e-05;
    }
    outlet
    {
        type            zeroGradient;
    }
}


// ************************************************************************* //
