/*--------------------------------*- C++ -*----------------------------------*\
  =========                 |
  \\      /  F ield         | OpenFOAM: The Open Source CFD Toolbox
   \\    /   O peration     | Website:  https://openfoam.org
    \\  /    A nd           | Version:  6
     \\/     M anipulation  |
\*---------------------------------------------------------------------------*/
FoamFile
{
    version     2.0;
    format      ascii;
    class       volScalarField;
    location    "9800";
    object      epsilon;
}
// * * * * * * * * * * * * * * * * * * * * * * * * * * * * * * * * * * * * * //

dimensions      [0 2 -3 0 0 0 0];

internalField   nonuniform List<scalar> 
662
(
0.000351842
0.000443589
0.000466882
0.00053574
0.000605689
0.000677286
0.000753521
0.000839338
0.00093262
0.00102552
0.00110374
0.00113561
0.0010742
0.000881038
0.000475824
4.28179e-05
6.92876e-05
0.000100584
0.000112287
0.000105847
8.61475e-05
6.76507e-05
5.35789e-05
4.3116e-05
3.52296e-05
2.9195e-05
2.45217e-05
2.08288e-05
1.78144e-05
1.52467e-05
1.2943e-05
1.17776e-05
9.20774e-06
0.000896377
0.00145136
0.000401206
0.000383721
0.000394696
0.000411677
0.000437848
0.000481104
0.000545033
0.000626561
0.000711408
0.000768108
0.000759248
0.000680408
0.000580945
0.000833919
0.000465486
0.000250851
4.23549e-05
8.47902e-05
0.000102549
0.00010208
9.67365e-05
9.59653e-05
7.48339e-05
5.64898e-05
4.29142e-05
3.30389e-05
2.58311e-05
2.05261e-05
1.65719e-05
1.36317e-05
1.17629e-05
1.1016e-05
3.31403e-05
2.14744e-05
0.00171623
0.00400411
0.000506926
0.000330664
0.000323778
0.000333942
0.000354557
0.000392934
0.000455295
0.000540429
0.000636365
0.000719425
0.00074414
0.000682633
0.000559791
0.000464924
0.000398102
0.000430814
0.000164804
0.000159321
0.000141128
0.000123372
0.000112972
0.000213802
0.000142365
9.7001e-05
6.8353e-05
4.9884e-05
3.76431e-05
2.93167e-05
2.35592e-05
1.96321e-05
1.52723e-05
1.3576e-05
7.19966e-05
3.58466e-05
0.00296102
0.00875157
0.000938112
0.000321405
0.000280005
0.000282633
0.000296403
0.000332888
0.000402467
0.000491632
0.000590741
0.000695657
0.000744069
0.00068319
0.000568696
0.000469099
0.000412772
0.000437722
0.00067783
0.000429671
0.000276938
0.000198883
0.000154781
0.000134201
0.000306118
0.000232179
0.000188935
0.000160596
0.000139106
0.000120172
0.000103905
8.84931e-05
7.26475e-05
4.44652e-05
2.9082e-05
0.000130361
5.45439e-05
0.00469448
0.0138791
0.00222235
0.000463926
0.000299857
0.000274351
0.000276435
0.000326822
0.000427402
0.000520707
0.000615113
0.00073517
0.00078412
0.000703691
0.000564168
0.000435973
0.000351177
0.00032801
0.000328546
0.000276263
0.000228586
0.000190616
0.000158358
0.000131376
0.000121288
0.000110404
0.000102591
9.58926e-05
8.87726e-05
8.04779e-05
7.181e-05
6.33796e-05
5.55405e-05
4.53152e-05
3.59793e-05
8.23593e-05
0.000131728
0.000132321
0.000153406
0.000195831
0.00733292
0.0213999
0.00585548
0.00153803
0.00074142
0.000489609
0.000405255
0.000464655
0.000574558
0.000642914
0.000721413
0.000838814
0.000878695
0.000753853
0.000564063
0.000394216
0.000287236
0.000248792
0.000241525
0.000233748
0.000215928
0.000189202
0.000159043
0.000131114
0.000112927
0.000105059
0.000102609
0.000101091
9.81246e-05
9.21099e-05
8.18784e-05
7.03434e-05
5.94995e-05
4.97752e-05
4.37675e-05
5.92795e-05
9.94904e-05
0.000117755
0.00022114
0.000218965
0.0121755
0.0152728
0.0110634
0.00571802
0.00284694
0.00154333
0.00101832
0.000879983
0.000872842
0.000845248
0.000866796
0.000980039
0.00103187
0.000819883
0.000565179
0.000357275
0.000242017
0.000209715
0.000214063
0.000215357
0.000201299
0.000176182
0.000148577
0.000125511
0.000112733
0.000110775
0.000114573
0.000119984
0.000124921
0.000127376
0.000124123
0.000111535
9.82468e-05
8.70031e-05
8.24895e-05
9.23647e-05
0.000125896
0.00018066
0.000348485
0.00035981
0.00597212
0.00864137
0.00752806
0.00630581
0.00493994
0.00353132
0.00246164
0.00178387
0.00134982
0.00113848
0.00116273
0.00128794
0.00116975
0.000845863
0.000520271
0.000294672
0.000199585
0.000185284
0.000190369
0.000187249
0.000171399
0.000149783
0.000130297
0.000117953
0.000114917
0.000120111
0.00013075
0.000145271
0.000163501
0.000185586
0.000211051
0.000235462
0.000250238
0.000278933
0.000336635
0.000483402
0.000793081
0.00133275
0.00457126
0.00126267
0.000883195
0.00295154
0.00314779
0.00279377
0.00227152
0.00180012
0.00151258
0.00150978
0.00167734
0.00167863
0.00116944
0.0007256
0.000361468
0.000218313
0.000172075
0.000162389
0.000159255
0.000150942
0.000137299
0.000123331
0.000113653
0.000110545
0.000114189
0.000123658
0.000138272
0.000158481
0.000185864
0.000222979
0.000273352
0.000341299
0.000433771
0.00056341
0.000753578
0.00101062
0.00131079
0.00159947
0.00184172
0.0010392
0.00135808
0.00128208
0.00178196
0.00202613
0.00206315
0.0020863
0.00223299
0.00237215
0.00221776
0.00168221
0.000779758
0.00044098
0.000260915
0.000189752
0.000163909
0.000153914
0.000146689
0.000137787
0.000127745
0.000119069
0.000113937
0.000113136
0.000116525
0.000123804
0.000135013
0.000150812
0.000172615
0.000202832
0.000245394
0.000306214
0.000392132
0.00051121
0.000671137
0.000866635
0.00107068
0.0012403
0.00118161
0.000588077
0.00692776
0.00738169
0.0017866
0.00210316
0.00262654
0.00291657
0.00309158
0.00310758
0.00282352
0.00226875
0.00153456
0.000799219
0.000308302
0.00024354
0.000211114
0.000198095
0.000191986
0.000186328
0.000178744
0.000169259
0.000159013
0.000149456
0.000142157
0.000137787
0.00013668
0.000139235
0.000146101
0.000158247
0.000177072
0.000204621
0.000243953
0.000299176
0.000375684
0.000479443
0.000613713
0.000772964
0.000950412
0.00127461
0.000655545
0.000654454
0.00315824
0.00358818
0.0034204
0.00423492
0.00447565
0.00408629
0.00334438
0.00240472
0.0015118
0.000880704
0.000499315
0.000332324
0.000226002
0.00020876
0.000193038
0.000178933
0.000165949
0.000153128
0.000140759
0.000130162
0.000122702
0.000119087
0.000118763
0.000121478
0.000127066
0.000135569
0.000147264
0.000162707
0.000182865
0.000209438
0.000243782
0.000287413
0.000342541
0.000411703
0.000497282
0.000602474
0.000668364
0.000500631
0.000409829
0.000596574
0.0127474
0.016149
0.00825151
0.00404442
0.00205109
0.0012066
0.000903183
0.000879886
0.000862291
0.000844526
0.000916761
0.00103506
0.00932603
0.00832363
0.00687958
0.00566002
0.0042098
0.00294206
0.00208736
0.00153931
0.00121455
0.00112394
0.00122939
0.00130393
0.00247323
0.00315176
0.00301086
0.00253676
0.00202083
0.00162517
0.0014749
0.001592
0.00171732
0.00156043
0.000973
0.00156084
0.00193736
0.00206024
0.00206292
0.00214474
0.00232333
0.00234439
0.0019886
0.00137035
0.0207093
0.00413898
0.00180637
0.00243593
0.00277887
0.0030165
0.00312862
0.00300595
0.00256784
0.00193228
0.00114537
0.00054596
0.00860921
0.00339767
0.00380917
0.004466
0.00433487
0.00375017
0.00288674
0.00193402
0.00116092
0.000661821
0.000391651
0.00029548
0.0138384
0.0112427
0.00955912
0.00709012
0.0046852
0.00289345
0.00187134
0.00138328
0.00113487
0.000993098
0.000996305
0.00111596
0.00704707
0.00930036
0.00763062
0.00547628
0.00437458
0.00338203
0.00251967
0.00188161
0.00145016
0.00128837
0.00138321
0.00148636
0.00175209
0.00162436
0.00217525
0.00225074
0.00204726
0.00180145
0.00172549
0.00189116
0.0020101
0.00178158
0.000660431
0.00144669
0.00194177
0.00223659
0.00245574
0.00268372
0.00280816
0.0025962
0.00207511
0.00131453
0.00712307
0.00553297
0.00250907
0.00298589
0.00347657
0.00353533
0.00334231
0.00288697
0.00221622
0.00155678
0.00092174
0.000450807
0.00544252
0.00412357
0.00491572
0.00550208
0.00537112
0.00460871
0.0034952
0.00233174
0.00141682
0.000821137
0.000466625
0.000368714
0.0118605
0.0109692
0.00833637
0.00585065
0.00368456
0.00229456
0.00158117
0.00124275
0.00105011
0.000973642
0.00105199
0.00115799
0.00745294
0.00973357
0.00628173
0.00489416
0.00387025
0.0029259
0.00217325
0.0016371
0.0013316
0.00131402
0.00145479
0.00144599
0.00121595
0.00196405
0.00226318
0.00216816
0.00191655
0.00172742
0.00179027
0.00198072
0.00194504
0.00154042
0.000865561
0.00173938
0.00210258
0.00235055
0.00256651
0.00278647
0.0027407
0.00237587
0.00170805
0.000964684
0.0167574
0.0037417
0.00262054
0.00332228
0.0035367
0.00346834
0.00314916
0.00256526
0.00187839
0.00123714
0.000648605
0.000344856
0.00381454
0.00456053
0.00523755
0.00553861
0.00504922
0.00407904
0.00289826
0.00183169
0.00108491
0.000614526
0.000384469
0.000396599
)
;

boundaryField
{
    floor
    {
        Cmu             0.09;
        kappa           0.41;
        E               9.8;
        type            epsilonWallFunction;
        value           nonuniform List<scalar> 
36
(
0.000475824
4.28179e-05
6.92876e-05
0.000100584
0.000112287
0.000105847
8.61475e-05
6.76507e-05
5.35789e-05
4.3116e-05
3.52296e-05
2.9195e-05
2.45217e-05
2.08288e-05
1.78144e-05
1.52467e-05
1.2943e-05
1.17776e-05
9.20774e-06
9.20774e-06
2.14744e-05
3.58466e-05
5.45439e-05
0.000132321
0.000153406
0.000195831
0.000475824
0.000833919
0.000465486
0.000250851
4.28179e-05
0.000250851
4.23549e-05
0.000430814
0.000164804
0.00067783
)
;
    }
    ceiling
    {
        Cmu             0.09;
        kappa           0.41;
        E               9.8;
        type            epsilonWallFunction;
        value           nonuniform List<scalar> 
58
(
0.00381454
0.00456053
0.00523755
0.00553861
0.00504922
0.00407904
0.00289826
0.00183169
0.00108491
0.000614526
0.000384469
0.000396599
0.000226002
0.00020876
0.000193038
0.000178933
0.000165949
0.000153128
0.000140759
0.000130162
0.000122702
0.000119087
0.000118763
0.000121478
0.000127066
0.000135569
0.000147264
0.000162707
0.000182865
0.000209438
0.000243782
0.000287413
0.000342541
0.000411703
0.000497282
0.000602474
0.000668364
0.000500631
0.000409829
0.000596574
0.00745294
0.00973357
0.000660431
0.00315824
0.00412357
0.00491572
0.00550208
0.00537112
0.00460871
0.0034952
0.00233174
0.00141682
0.000821137
0.000466625
0.000368714
0.00597212
0.00930036
0.00135808
)
;
    }
    sWall
    {
        Cmu             0.09;
        kappa           0.41;
        E               9.8;
        type            epsilonWallFunction;
        value           nonuniform List<scalar> 4(0.00712307 0.00544252 0.00692776 0.00315824);
    }
    nWall
    {
        Cmu             0.09;
        kappa           0.41;
        E               9.8;
        type            epsilonWallFunction;
        value           nonuniform List<scalar> 6(0.000195831 0.000218965 0.00035981 0.000588077 0.000654454 0.000596574);
    }
    sideWalls
    {
        type            empty;
    }
    glass1
    {
        Cmu             0.09;
        kappa           0.41;
        E               9.8;
        type            epsilonWallFunction;
        value           nonuniform List<scalar> 10(0.000351842 0.000896377 0.00171623 0.00296102 0.00469448 0.00733292 0.0138384 0.00704707 0.0121755 0.00597212);
    }
    glass2
    {
        Cmu             0.09;
        kappa           0.41;
        E               9.8;
        type            epsilonWallFunction;
        value           nonuniform List<scalar> 2(0.00126267 0.0010392);
    }
    sun
    {
        Cmu             0.09;
        kappa           0.41;
        E               9.8;
        type            epsilonWallFunction;
        value           nonuniform List<scalar> 
14
(
0.000351842
0.000443589
0.000466882
0.00053574
0.000605689
0.000677286
0.000753521
0.000839338
0.00093262
0.00102552
0.00110374
0.00113561
0.0010742
0.000881038
)
;
    }
    Table_master
    {
        Cmu             0.09;
        kappa           0.41;
        E               9.8;
        type            epsilonWallFunction;
        value           nonuniform List<scalar> 9(0.000213802 0.000142365 9.7001e-05 6.8353e-05 4.9884e-05 3.76431e-05 2.93167e-05 2.35592e-05 1.96321e-05);
    }
    Table_slave
    {
        Cmu             0.09;
        kappa           0.41;
        E               9.8;
        type            epsilonWallFunction;
        value           nonuniform List<scalar> 9(0.000306118 0.000232179 0.000188935 0.000160596 0.000139106 0.000120172 0.000103905 8.84931e-05 7.26475e-05);
    }
    inlet
    {
        type            turbulentMixingLengthDissipationRateInlet;
        mixingLength    0.01;
        phi             phi;
        k               k;
        value           uniform 0.000471671;
    }
    outlet
    {
        type            zeroGradient;
    }
}


// ************************************************************************* //
