/*--------------------------------*- C++ -*----------------------------------*\
  =========                 |
  \\      /  F ield         | OpenFOAM: The Open Source CFD Toolbox
   \\    /   O peration     | Website:  https://openfoam.org
    \\  /    A nd           | Version:  6
     \\/     M anipulation  |
\*---------------------------------------------------------------------------*/
FoamFile
{
    version     2.0;
    format      ascii;
    class       volScalarField;
    location    "9800";
    object      nut;
}
// * * * * * * * * * * * * * * * * * * * * * * * * * * * * * * * * * * * * * //

dimensions      [0 2 -1 0 0 0 0];

internalField   nonuniform List<scalar> 
662
(
0.000998067
0.00107821
0.00109676
0.00114823
0.00119617
0.00124156
0.00128649
0.00133359
0.00138126
0.00142568
0.00146105
0.00147498
0.0014479
0.00135532
0.00110372
0.000494599
0.000580671
0.000657489
0.000682058
0.000668762
0.000624395
0.000576062
0.000532979
0.000495744
0.000463463
0.000435326
0.000410736
0.000388986
0.000369234
0.000350567
0.000331938
0.000321661
0.000296321
0.00136313
0.00286474
0.00255771
0.00292393
0.0032701
0.00362991
0.00397885
0.00427367
0.00456168
0.00491129
0.0053087
0.00569911
0.00597731
0.00598912
0.00520762
0.00133071
0.00109567
0.000891628
0.000492811
0.00116306
0.00169112
0.00209853
0.0022235
0.00162202
0.00136731
0.00119409
0.00106628
0.000968415
0.000890751
0.00082438
0.000762207
0.000700311
0.000644846
0.00059757
0.000733351
0.000392963
0.00169265
0.00398708
0.002941
0.00373929
0.00406456
0.00426618
0.00437717
0.00444348
0.00455612
0.00479931
0.00520353
0.00576696
0.00636781
0.00677347
0.00662676
0.00548073
0.00427197
0.00106776
0.000775119
0.0013216
0.00190798
0.00248987
0.00265136
0.000845375
0.000738209
0.000649587
0.000578049
0.000520434
0.000473813
0.00043593
0.00040529
0.000381388
0.000421031
0.000486576
0.000861231
0.000466152
0.00203012
0.00548123
0.00294329
0.00386764
0.00422422
0.00422531
0.00405964
0.0038836
0.00383768
0.00397948
0.00436815
0.00506012
0.00587139
0.00648035
0.0066924
0.00649952
0.00569041
0.0031433
0.00124189
0.00157944
0.0021666
0.00288028
0.00349486
0.00351052
0.000952815
0.000868933
0.00081124
0.000768464
0.000732533
0.000697665
0.000664647
0.000630011
0.00058991
0.000555368
0.000551017
0.00103557
0.000536159
0.00236722
0.00716394
0.00379547
0.0035441
0.00410436
0.00416584
0.00391076
0.00355413
0.00339408
0.0034634
0.00383203
0.00461454
0.00549386
0.00606213
0.00632445
0.00635917
0.00608826
0.00507351
0.00462346
0.00463057
0.00486974
0.0051508
0.00530921
0.00518636
0.00437456
0.00395627
0.00372127
0.0035519
0.00338438
0.00317183
0.00283137
0.00240104
0.00191702
0.00145484
0.00109124
0.0010247
0.000911823
0.000720424
0.00075682
0.000820992
0.00274665
0.00866877
0.0056594
0.0037354
0.00357681
0.00373602
0.00377579
0.00350245
0.00331467
0.00333325
0.00369091
0.00446982
0.00538928
0.00588695
0.0060556
0.00606729
0.00608109
0.00604585
0.00624783
0.00652094
0.00668417
0.00667183
0.00648741
0.00615162
0.00568858
0.00530558
0.00500184
0.00473434
0.00447624
0.00421026
0.0038855
0.00345851
0.00293169
0.00234408
0.0018061
0.0012975
0.00108661
0.000965025
0.00121179
0.000852126
0.00129072
0.00406325
0.00528444
0.00459289
0.00387239
0.00357519
0.00354355
0.00352162
0.00337959
0.00329792
0.00355624
0.00433214
0.0056071
0.00596809
0.00604085
0.00606499
0.00636016
0.00687344
0.00733566
0.0075554
0.00749915
0.00721182
0.00676657
0.00623424
0.00569441
0.00524262
0.00488558
0.00458968
0.00433206
0.00410604
0.00390949
0.0036881
0.00333324
0.00285771
0.00237113
0.00189706
0.00159261
0.00145861
0.00136695
0.00100555
0.00101792
0.00205676
0.00295553
0.00357552
0.00384815
0.00380604
0.00365562
0.00348836
0.0032877
0.00328877
0.00383109
0.00482931
0.00599064
0.00619272
0.00621683
0.00643433
0.00702226
0.00747109
0.00767938
0.00761464
0.00728278
0.00674575
0.00609384
0.00542855
0.00485486
0.00442813
0.00412209
0.00389422
0.00372384
0.0036078
0.00355062
0.00354617
0.00349612
0.00322567
0.00296821
0.0028282
0.00288103
0.00296796
0.00360738
0.00152806
0.000264199
0.0012886
0.00208194
0.00258605
0.00281479
0.00287433
0.0030056
0.00358835
0.00466023
0.00567649
0.00632918
0.00636816
0.00656685
0.00683754
0.00708317
0.00714821
0.00702534
0.00668132
0.00612637
0.00544386
0.00475278
0.00416394
0.00373042
0.00343244
0.00322042
0.00305792
0.00292605
0.00281408
0.00271361
0.00261688
0.00253306
0.00246414
0.0024191
0.00239484
0.00234372
0.00223343
0.00208403
0.001432
0.00062132
0.000648483
0.00120192
0.00182153
0.00235951
0.0029484
0.00385958
0.00501506
0.00589767
0.00620856
0.00622319
0.00632223
0.00637248
0.00631308
0.00613731
0.00589367
0.00555115
0.00508473
0.00452823
0.00396614
0.00349162
0.0031404
0.00289694
0.00272675
0.00260156
0.00250584
0.00243307
0.00238201
0.00235511
0.00235693
0.00237627
0.00240354
0.0024322
0.00244522
0.0024195
0.00234761
0.00209646
0.00118447
0.00106956
0.00284783
0.00146746
0.00129173
0.00196385
0.002845
0.00380036
0.00482731
0.00565304
0.0059817
0.00581175
0.0052647
0.00477374
0.00483997
0.00471671
0.00452539
0.00432391
0.0040904
0.00380186
0.00347177
0.00313878
0.00283941
0.0026024
0.00242805
0.00230555
0.00222448
0.00217811
0.00216179
0.00217048
0.0021968
0.00224422
0.00231314
0.00239754
0.00248959
0.00257635
0.00264173
0.00269295
0.00279181
0.001889
0.00122745
0.000823169
0.00198008
0.00269994
0.00326562
0.00372419
0.0041067
0.00435209
0.00439274
0.00417611
0.00369921
0.00288376
0.00173004
0.000861158
0.000838676
0.000817071
0.000796665
0.000776909
0.000756363
0.000735423
0.000716484
0.000702527
0.000695558
0.000694926
0.000700182
0.000710758
0.00072627
0.000746581
0.000771816
0.000802457
0.000839583
0.000883172
0.000932998
0.000989197
0.00105174
0.00112007
0.00119406
0.00123609
0.00112258
0.00105014
0.00119015
0.00215704
0.00553003
0.00519333
0.00421428
0.00368313
0.00354341
0.00355855
0.00345569
0.00332072
0.00336659
0.00389042
0.00482576
0.00160282
0.00258642
0.00329399
0.00376323
0.00385276
0.00373384
0.00357833
0.00338337
0.00323922
0.00348141
0.00430409
0.00531932
0.000835211
0.00171733
0.00237197
0.00272986
0.00285573
0.00290872
0.00322126
0.00408999
0.00521268
0.00600851
0.000496439
0.000897694
0.00151924
0.00209883
0.00262936
0.00335121
0.00443787
0.00552077
0.00611792
0.00624278
0.00302579
0.00239434
0.00112964
0.00160091
0.00238004
0.00330865
0.00431493
0.00529186
0.00587597
0.0059628
0.00554208
0.00510604
0.00208935
0.0023289
0.00304694
0.00350094
0.00392816
0.00425006
0.00440272
0.00431707
0.00397173
0.0033427
0.00232423
0.0012477
0.001347
0.00271009
0.00403434
0.00441096
0.00419723
0.0038637
0.00365814
0.00354113
0.00336957
0.00329157
0.00364656
0.0045259
0.00107566
0.00117988
0.00159252
0.00233769
0.00295735
0.00325417
0.00330165
0.003224
0.00312712
0.00334626
0.00415458
0.00522803
0.000463121
0.000739366
0.00145476
0.00205513
0.00243626
0.00269497
0.00317001
0.00415867
0.00530882
0.00605797
0.000488594
0.000773916
0.00133059
0.00202589
0.00280904
0.00380336
0.00491536
0.00576971
0.00613198
0.00597271
0.00107952
0.00269209
0.00232194
0.00240165
0.00309409
0.00387566
0.00462347
0.00524303
0.00554029
0.00539346
0.00480504
0.00402079
0.000986902
0.000899702
0.000953975
0.00099049
0.00098257
0.000933688
0.000851464
0.000743994
0.000630156
0.000525388
0.000435173
0.000402317
0.00186552
0.00359827
0.00433964
0.00435026
0.00402221
0.00374003
0.00360429
0.00345919
0.00329968
0.00339611
0.00403992
0.00502797
0.00109592
0.00119792
0.00196074
0.00268459
0.00314473
0.00330074
0.0032715
0.00316282
0.0031703
0.00368165
0.0046981
0.00566306
0.000445585
0.00109479
0.00178147
0.00227101
0.00256779
0.00287337
0.00360736
0.00475442
0.00575211
0.00623381
0.000549711
0.00102789
0.00166725
0.00240183
0.0032715
0.00438093
0.00538865
0.00602644
0.00608869
0.00592702
0.00294367
0.00264125
0.0022375
0.00272799
0.0034803
0.0042563
0.00496059
0.00544354
0.00552207
0.00515372
0.00438987
0.00390565
0.000876641
0.000930421
0.000974356
0.000992678
0.000962536
0.000896455
0.000799936
0.000686478
0.00057651
0.000477003
0.000407968
0.000412214
)
;

boundaryField
{
    floor
    {
        type            nutkWallFunction;
        Cmu             0.09;
        kappa           0.41;
        E               9.8;
        value           nonuniform List<scalar> 
36
(
0.000132847
5.90282e-05
6.99309e-05
7.94942e-05
8.25238e-05
8.0886e-05
7.53917e-05
6.93522e-05
6.39163e-05
5.91747e-05
5.50278e-05
5.13839e-05
4.81748e-05
4.5316e-05
4.27022e-05
4.02152e-05
3.77161e-05
3.63296e-05
3.28856e-05
3.28855e-05
4.58396e-05
5.53739e-05
6.43186e-05
8.72282e-05
9.16643e-05
9.94254e-05
0.000132847
0.000158963
0.00013191
0.000107885
5.90282e-05
0.000107885
5.8799e-05
0.000128657
9.3885e-05
0.00014881
)
;
    }
    ceiling
    {
        type            nutkWallFunction;
        Cmu             0.09;
        kappa           0.41;
        E               9.8;
        value           nonuniform List<scalar> 
58
(
0.000106085
0.00011248
0.000117673
0.000119834
0.000116285
0.000108453
9.68852e-05
8.30684e-05
6.941e-05
5.67731e-05
4.78146e-05
4.83705e-05
0.000104246
0.000101551
9.89532e-05
9.64918e-05
9.41019e-05
9.16088e-05
8.90595e-05
8.67465e-05
8.50371e-05
8.41823e-05
8.41046e-05
8.47496e-05
8.60457e-05
8.79426e-05
9.0419e-05
9.34846e-05
9.71913e-05
0.00010166
0.000106878
0.000112805
0.000119448
0.000126788
0.000134753
0.000143314
0.000148151
0.000135045
0.000126602
0.000142866
0.000131985
0.000143795
5.83706e-05
9.96813e-05
0.000108832
0.000115268
0.000119574
0.000118646
0.000112875
0.000103081
9.01044e-05
7.61091e-05
6.29547e-05
5.13661e-05
4.70731e-05
0.000122869
0.000141716
7.50571e-05
)
;
    }
    sWall
    {
        type            nutkWallFunction;
        Cmu             0.09;
        kappa           0.41;
        E               9.8;
        value           nonuniform List<scalar> 4(0.000130009 0.000119161 0.000128847 9.96843e-05);
    }
    nWall
    {
        type            nutkWallFunction;
        Cmu             0.09;
        kappa           0.41;
        E               9.8;
        value           nonuniform List<scalar> 6(9.94264e-05 0.000103166 0.000121376 0.00014222 0.000147171 0.000142877);
    }
    sideWalls
    {
        type            empty;
    }
    glass1
    {
        type            nutkWallFunction;
        Cmu             0.09;
        kappa           0.41;
        E               9.8;
        value           nonuniform List<scalar> 10(0.000120572 0.000162859 0.000199922 0.000237063 0.0002735 0.00031386 0.000160985 0.000129692 0.000154565 0.000122914);
    }
    glass2
    {
        type            nutkWallFunction;
        Cmu             0.09;
        kappa           0.41;
        E               9.8;
        value           nonuniform List<scalar> 2(0.000181363 0.000170543);
    }
    sun
    {
        type            nutkWallFunction;
        Cmu             0.09;
        kappa           0.41;
        E               9.8;
        value           nonuniform List<scalar> 
14
(
0.000120492
0.000129877
0.000132038
0.000138013
0.000143551
0.000148772
0.000153919
0.000159292
0.00016471
0.000169739
0.00017373
0.000175298
0.000172246
0.000161762
)
;
    }
    Table_master
    {
        type            nutkWallFunction;
        Cmu             0.09;
        kappa           0.41;
        E               9.8;
        value           nonuniform List<scalar> 9(0.000102354 8.94002e-05 7.85195e-05 6.96062e-05 6.23299e-05 5.63694e-05 5.14723e-05 4.74723e-05 4.43255e-05);
    }
    Table_slave
    {
        type            nutkWallFunction;
        Cmu             0.09;
        kappa           0.41;
        E               9.8;
        value           nonuniform List<scalar> 9(0.000115149 0.000105175 9.825e-05 9.30783e-05 8.8708e-05 8.44424e-05 8.03799e-05 7.6092e-05 7.10917e-05);
    }
    inlet
    {
        type            calculated;
        value           uniform 0.000167705;
    }
    outlet
    {
        type            calculated;
        value           nonuniform List<scalar> 4(0.00302579 0.00239434 0.00107952 0.00284783);
    }
}


// ************************************************************************* //
