/*--------------------------------*- C++ -*----------------------------------*\
  =========                 |
  \\      /  F ield         | OpenFOAM: The Open Source CFD Toolbox
   \\    /   O peration     | Website:  https://openfoam.org
    \\  /    A nd           | Version:  6
     \\/     M anipulation  |
\*---------------------------------------------------------------------------*/
FoamFile
{
    version     2.0;
    format      ascii;
    class       volScalarField;
    location    "1780";
    object      k;
}
// * * * * * * * * * * * * * * * * * * * * * * * * * * * * * * * * * * * * * //

dimensions      [0 2 -2 0 0 0 0];

internalField   nonuniform List<scalar> 
458
(
0.00226779
0.00268607
0.00280885
0.00308404
0.00334887
0.00360967
0.00388035
0.00416516
0.00440548
0.00455989
0.00457744
0.00441271
0.00402201
0.00325467
0.00187338
0.000457607
0.000628871
0.000808339
0.000878834
0.000851544
0.000745712
0.000636802
0.000546633
0.000474087
0.000415265
0.000367088
0.000327367
0.000294046
0.000265253
0.000239313
0.000214609
0.000200567
0.000169412
0.00412305
0.00755219
0.00415044
0.00437441
0.00471627
0.00513554
0.0056326
0.00619688
0.00680083
0.00731321
0.00758854
0.00753118
0.00712388
0.00635481
0.00513861
0.00326412
0.00224667
0.00149557
0.00045028
0.000973116
0.00130324
0.00145833
0.0014727
0.00125935
0.00102434
0.000834021
0.000688752
0.000577334
0.000490672
0.000421518
0.000364701
0.000317438
0.000283509
0.000264383
0.000493879
0.000292758
0.00609512
0.0136493
0.00491166
0.00472527
0.00494187
0.00528632
0.00575112
0.00634116
0.00699417
0.00755079
0.00789274
0.00795
0.00769357
0.00706076
0.00603722
0.00488839
0.0039186
0.00208626
0.0010682
0.00139967
0.00160355
0.00173036
0.00172279
0.00134713
0.00103254
0.000802619
0.000637595
0.000518255
0.000430607
0.000365336
0.000316476
0.000280895
0.000262141
0.000265443
0.000780341
0.000408868
0.00835893
0.0222361
0.00592718
0.00470729
0.00474685
0.00501686
0.00547404
0.00616838
0.00689284
0.00746335
0.00783409
0.00795389
0.00774858
0.00714597
0.00628714
0.00543568
0.00463232
0.00350024
0.00276892
0.00250696
0.00237413
0.00233819
0.0022896
0.00215189
0.00170945
0.00143639
0.00126401
0.00114384
0.0010469
0.000954799
0.000871262
0.000787143
0.000694225
0.000530206
0.000422759
0.00113249
0.00054238
0.0110412
0.0339567
0.00842382
0.00475011
0.00448327
0.00470849
0.00529993
0.00635547
0.00718532
0.00773981
0.00809537
0.00819751
0.00790068
0.00718276
0.0062162
0.0053093
0.00457973
0.00397843
0.00379461
0.00347949
0.00325253
0.00307068
0.00285924
0.00259031
0.00230273
0.00210667
0.00198664
0.00189194
0.0017899
0.00166114
0.00149192
0.00129917
0.00109389
0.000865696
0.000664767
0.0009222
0.00106382
0.000969435
0.00108637
0.00128348
0.0143256
0.0466877
0.0149493
0.00592331
0.00474275
0.00478361
0.00570785
0.00726729
0.0080322
0.0084746
0.00873891
0.00874793
0.00832049
0.00737897
0.00612469
0.0049662
0.00418364
0.00384161
0.00381398
0.00382304
0.00373186
0.00350874
0.00318922
0.00283485
0.00254783
0.00239538
0.00232177
0.00226316
0.00218506
0.00206518
0.00187839
0.00164887
0.00140034
0.00114678
0.000935598
0.000900701
0.00103003
0.00105444
0.00165138
0.00138073
0.017976
0.0550461
0.027076
0.01236
0.00830854
0.00741265
0.00850547
0.00921013
0.00948626
0.00964591
0.00972999
0.00958381
0.00894735
0.00770945
0.00611023
0.00469885
0.00388687
0.00373586
0.00389821
0.00398266
0.00385353
0.00355036
0.00317095
0.00281189
0.00256745
0.00246858
0.00245172
0.00245703
0.00245494
0.00242453
0.00233603
0.00214725
0.00191065
0.00165895
0.0014572
0.00136458
0.00145095
0.00168149
0.00223391
0.00194883
0.0189407
0.0568458
0.0383014
0.0271712
0.0197421
0.0158812
0.0137258
0.0122889
0.0115366
0.0112125
0.0110099
0.0106101
0.00964665
0.0079949
0.00597427
0.00439241
0.00367725
0.00365522
0.00377972
0.00375009
0.00351676
0.00317004
0.00282007
0.00255054
0.00240808
0.00238376
0.00243136
0.00251749
0.00263028
0.00276718
0.00292547
0.00306697
0.00310925
0.0031389
0.00329204
0.00386908
0.00511958
0.00681589
0.0128318
0.00467703
0.018204
0.0264663
0.0243621
0.0217105
0.0188863
0.0164645
0.0146542
0.0135908
0.0130869
0.012768
0.0123572
0.0115962
0.0100713
0.00776915
0.00515932
0.00385755
0.00340249
0.00330949
0.00325294
0.00309128
0.00282339
0.00252773
0.00228257
0.00213431
0.00208896
0.00212327
0.0022096
0.00233306
0.00249002
0.00268165
0.0029093
0.00317116
0.00348969
0.00390091
0.00444788
0.00509766
0.00569694
0.00606913
0.00624827
0.00408119
0.00718498
0.011095
0.013543
0.0147735
0.0154374
0.0157081
0.0153776
0.0144521
0.0132129
0.0115859
0.00880997
0.00585886
0.0040362
0.00322543
0.00288133
0.00270025
0.00252795
0.00231816
0.00209088
0.00188811
0.00175205
0.00169312
0.00169787
0.0017477
0.00182979
0.00193926
0.0020775
0.00225114
0.00247287
0.00276576
0.00313122
0.00356698
0.0040509
0.00449044
0.00471263
0.00457283
0.00410677
0.00264226
0.00805094
0.0194691
0.0216105
0.0215006
0.0207281
0.0184769
0.015338
0.0120148
0.00883296
0.0062358
0.00435117
0.00326399
0.00271635
0.00241255
0.00221085
0.00203283
0.00184808
0.00166506
0.00150936
0.00139899
0.00133825
0.00132631
0.00135507
0.00141884
0.00151601
0.001648
0.00181808
0.00203055
0.00229598
0.00262439
0.00302441
0.00349685
0.00401537
0.0045122
0.00481685
0.00510149
0.00428736
0.00271137
0.00890518
0.00935066
0.00976458
0.0120867
0.0107993
0.00848108
0.0060361
0.00437016
0.00348205
0.00273157
0.0021459
0.00173646
0.00142363
0.00120718
0.00106724
0.000970451
0.00089593
0.00083418
0.000784852
0.000752418
0.000740493
0.000749445
0.000776293
0.000816622
0.000869039
0.000933264
0.00100999
0.00110088
0.00120896
0.00133968
0.00149659
0.00168157
0.00189896
0.00215374
0.00245046
0.0028313
0.00300666
0.00288479
0.0024958
0.0021349
)
;

boundaryField
{
    floor
    {
        type            kqRWallFunction;
        value           nonuniform List<scalar> 
36
(
0.00187338
0.000457607
0.000628871
0.000808339
0.000878834
0.000851544
0.000745712
0.000636802
0.000546633
0.000474087
0.000415265
0.000367088
0.000327367
0.000294046
0.000265253
0.000239313
0.000214609
0.000200567
0.000169412
0.000169412
0.000292758
0.000408868
0.00054238
0.000969435
0.00108637
0.00128348
0.00187338
0.00326412
0.00224667
0.00149557
0.000457607
0.00149557
0.00045028
0.00208626
0.0010682
0.00276892
)
;
    }
    ceiling
    {
        type            kqRWallFunction;
        value           nonuniform List<scalar> 
43
(
0.00890518
0.00935066
0.00976458
0.0120867
0.0107993
0.00848108
0.0060361
0.00437016
0.00348205
0.00273157
0.0021459
0.00173646
0.00142363
0.00120718
0.00106724
0.000970451
0.00089593
0.00083418
0.000784852
0.000752418
0.000740493
0.000749445
0.000776293
0.000816622
0.000869039
0.000933264
0.00100999
0.00110088
0.00120896
0.00133968
0.00149659
0.00168157
0.00189896
0.00215374
0.00245046
0.0028313
0.00300666
0.00288479
0.0024958
0.0021349
0.018204
0.0264663
0.00805094
)
;
    }
    sWall
    {
        type            kqRWallFunction;
        value           uniform 0.00890518;
    }
    nWall
    {
        type            kqRWallFunction;
        value           nonuniform List<scalar> 6(0.00128348 0.00138073 0.00194883 0.00264226 0.00271137 0.0021349);
    }
    sideWalls
    {
        type            empty;
    }
    glass1
    {
        type            kqRWallFunction;
        value           nonuniform List<scalar> 9(0.00226779 0.00412305 0.00609512 0.00835893 0.0110412 0.0143256 0.017976 0.0189407 0.018204);
    }
    glass2
    {
        type            kqRWallFunction;
        value           nonuniform List<scalar> 2(0.00467703 0.00408119);
    }
    sun
    {
        type            kqRWallFunction;
        value           nonuniform List<scalar> 
14
(
0.00226779
0.00268607
0.00280885
0.00308404
0.00334887
0.00360967
0.00388035
0.00416516
0.00440548
0.00455989
0.00457744
0.00441271
0.00402201
0.00325467
)
;
    }
    Table_master
    {
        type            kqRWallFunction;
        value           nonuniform List<scalar> 9(0.00134713 0.00103254 0.000802619 0.000637595 0.000518255 0.000430607 0.000365336 0.000316476 0.000280895);
    }
    Table_slave
    {
        type            kqRWallFunction;
        value           nonuniform List<scalar> 9(0.00170945 0.00143639 0.00126401 0.00114384 0.0010469 0.000954799 0.000871262 0.000787143 0.000694225);
    }
    inlet
    {
        type            turbulentIntensityKineticEnergyInlet;
        intensity       0.05;
        value           uniform 0.000937501;
    }
    outlet
    {
        type            zeroGradient;
    }
}


// ************************************************************************* //
