/*--------------------------------*- C++ -*----------------------------------*\
  =========                 |
  \\      /  F ield         | OpenFOAM: The Open Source CFD Toolbox
   \\    /   O peration     | Website:  https://openfoam.org
    \\  /    A nd           | Version:  6
     \\/     M anipulation  |
\*---------------------------------------------------------------------------*/
FoamFile
{
    version     2.0;
    format      ascii;
    class       surfaceScalarField;
    location    "1780";
    object      phi;
}
// * * * * * * * * * * * * * * * * * * * * * * * * * * * * * * * * * * * * * //

dimensions      [1 0 -1 0 0 0 0];

internalField   nonuniform List<scalar> 
850
(
-0.00305311
0.00311356
-0.0041458
0.00109269
-0.0050149
0.0008691
-0.00570376
0.000688865
-0.00617585
0.000472094
-0.00639712
0.000221267
-0.00632794
-6.91821e-05
-0.00592416
-0.000403781
-0.00517396
-0.000750196
-0.00412886
-0.0010451
-0.00290061
-0.00122824
-0.00164185
-0.00125876
-0.000539344
-0.00110251
0.000135725
-0.000675068
0.000138076
-0.000922249
0.000925906
-0.000689602
-0.000232647
-6.0041e-05
-0.000629561
0.00054351
-0.000603551
0.00100269
-0.000459176
0.00125922
-0.00025653
0.0013673
-0.000108083
0.00142009
-5.27935e-05
0.00145043
-3.03351e-05
0.00146547
-1.50445e-05
0.00146906
-3.58799e-06
0.00146204
7.02116e-06
0.00143875
2.3286e-05
0.00138018
5.85731e-05
0.00125417
0.000126005
0.00105045
0.00020372
0.000793601
0.000256853
0.00079844
-0.00220746
0.00548443
-0.00329511
0.00218034
-0.00420833
0.00178231
-0.0049061
0.00138664
-0.00538762
0.000953612
-0.00563057
0.000464221
-0.00559457
-0.000105186
-0.0052404
-0.000757945
-0.00456694
-0.00142366
-0.00364294
-0.0019691
-0.0025883
-0.00228289
-0.00154179
-0.00230527
-0.000628952
-0.00201534
9.26431e-05
-0.00139666
0.000872429
-0.00064171
0.00114838
-0.000272167
0.000956723
0.000196016
0.000969411
4.19837e-05
0.000894922
0.000422326
-0.000612989
0.000787065
-0.0009943
0.00110005
-0.000916539
0.00135096
-0.000710085
0.00140744
-0.000313012
0.00141558
-0.000116214
0.00142629
-6.35101e-05
0.00143527
-3.93169e-05
0.00144054
-2.03082e-05
0.0014427
-5.75142e-06
0.0014423
7.41843e-06
0.00143682
2.87713e-05
0.00140034
9.50478e-05
0.0012474
0.000278946
0.000978837
0.000472287
0.000644745
0.000590945
0.00145556
-0.00156234
0.00729719
-0.00251036
0.00312837
-0.003343
0.00261495
-0.00396556
0.0020092
-0.00441314
0.00140119
-0.00466167
0.000712752
-0.00465602
-0.000110831
-0.00433476
-0.00107921
-0.00371325
-0.00204516
-0.00288887
-0.00279349
-0.00198679
-0.00318497
-0.00112287
-0.00316919
-0.000373684
-0.00276453
0.00024026
-0.00201061
0.000751714
-0.00115316
0.000899064
-0.000419518
0.000707234
0.000387847
0.00168791
0.00143712
-0.000528361
0.00163256
-0.000808432
0.00157496
-0.000936695
0.00160828
-0.000949861
0.00181169
-0.000913491
0.00149883
0.00138277
0.00131941
0.00128025
0.00126009
0.0012545
0.00126207
0.00129099
0.0013862
0.00115913
0.000506013
0.00087019
0.000761226
0.000498993
0.000962141
0.00197313
-0.00109549
0.00871733
-0.00185228
0.00388516
-0.0024366
0.00319926
-0.00288267
0.00245527
-0.00322779
0.00174631
-0.00344066
0.000925617
-0.00344208
-0.000109413
-0.00312368
-0.00139761
-0.00254783
-0.00262101
-0.00184614
-0.00349518
-0.00113052
-0.0039006
-0.000480816
-0.00381889
6.56349e-05
-0.00331098
0.000526159
-0.00247113
0.000902169
-0.00152917
0.00111916
-0.000636506
0.00130324
0.000203766
0.00225677
0.000734375
0.00216712
0.000101588
0.00199409
-0.000355328
0.0019081
-0.000722445
0.00179733
-0.000825926
0.00166516
-0.000817689
0.00143417
-0.000682506
0.00175788
-0.000323856
0.00193563
-0.00017791
0.00206666
-0.000131181
0.00216754
-0.000101037
0.00222786
-6.04675e-05
0.00222537
2.33624e-06
0.00213252
9.26997e-05
0.00191298
0.000219387
0.00150681
0.000406009
0.00126952
0.000743304
0.00090236
0.00112839
0.000384157
0.00148034
0.00238092
-0.000756056
0.00986111
-0.00132706
0.00445617
-0.00150962
0.00338182
-0.0016882
0.00263385
-0.00185317
0.00191128
-0.00196218
0.00103463
-0.00191372
-0.000157871
-0.00155668
-0.00175465
-0.00105568
-0.00312202
-0.000537783
-0.00401307
-7.33083e-05
-0.00436507
0.000305329
-0.00419752
0.000596469
-0.00360212
0.000849281
-0.00272394
0.00106851
-0.0017484
0.00127576
-0.000843754
0.00158625
-0.000106728
0.00202962
0.000291002
0.0020634
6.78159e-05
0.00199595
-0.000287886
0.00181137
-0.000537866
0.00162349
-0.000638037
0.00144641
-0.000640616
0.00131778
-0.000553868
0.00137664
-0.000382724
0.00146483
-0.0002661
0.00154943
-0.000215779
0.00163104
-0.000182642
0.00170127
-0.000130701
0.00174038
-3.67723e-05
0.00172437
0.000108711
0.00163813
0.000305624
0.0014859
0.000558241
0.00132984
0.000899362
0.00115092
0.00130731
0.000803968
0.0018273
0.00101978
0.00216511
-0.00109534
0.00213624
-0.00179354
0.000717819
-0.00172077
-0.000638757
0.0109406
-0.0010144
0.00483181
-0.000633438
0.00300086
-0.000448675
0.00244909
-0.000384023
0.00184663
-0.000303632
0.000954239
-5.18113e-05
-0.000409691
0.000334616
-0.00214108
0.00069231
-0.00347971
0.000952156
-0.00427291
0.00109517
-0.00450809
0.00114549
-0.00424784
0.00113937
-0.003596
0.00111612
-0.00270069
0.00110052
-0.0017328
0.00113248
-0.00087571
0.00126931
-0.000243561
0.00148386
7.64473e-05
0.00153498
1.66993e-05
0.0014369
-0.000189807
0.00126245
-0.000363416
0.00108277
-0.000458355
0.000925493
-0.000483341
0.000820539
-0.000448913
0.000809863
-0.000372048
0.000859345
-0.000315582
0.000935636
-0.000292071
0.00102649
-0.000273493
0.0011254
-0.000229619
0.00122248
-0.000133848
0.00129544
3.57493e-05
0.00133252
0.000268543
0.00134783
0.000542939
0.00138185
0.000865338
0.00148234
0.00120682
0.00168587
0.00162376
0.00203674
0.00181425
0.00233691
0.00183607
0.00182993
0.00122479
0.000174597
-0.000763867
0.0121918
-0.000621491
0.00468944
0.000492275
0.00188709
0.000960653
0.00198071
0.00121806
0.00158922
0.00159961
0.000572681
0.00210296
-0.000913039
0.00244015
-0.00247828
0.00257399
-0.00361355
0.00250646
-0.00420538
0.00227324
-0.00427487
0.00193629
-0.00391089
0.00155936
-0.00321907
0.00120056
-0.0023419
0.000896676
-0.00142891
0.000704863
-0.000683897
0.000653005
-0.000191703
0.000703957
2.5495e-05
0.000711936
8.72063e-06
0.000635602
-0.000113473
0.000508218
-0.000236033
0.000367907
-0.000318044
0.000242038
-0.000357472
0.000156008
-0.000362883
0.000133172
-0.000349212
0.000162298
-0.000344708
0.000222019
-0.000351792
0.000302542
-0.000354017
0.000404875
-0.000331952
0.000533992
-0.000262965
0.00068693
-0.000117188
0.000844901
0.000110572
0.00100692
0.000380924
0.00120877
0.000663486
0.00148339
0.000932196
0.00188383
0.00122332
0.00241735
0.00128073
0.00318505
0.00106837
0.0033617
0.00104814
0.00360511
0.00273594
0.0099992
0.00339169
0.00403368
0.00344935
0.00182943
0.00353508
0.00189499
0.00374641
0.00137789
0.0042224
9.66888e-05
0.00469362
-0.00138426
0.0047887
-0.00257335
0.0045144
-0.00333925
0.00396127
-0.00365224
0.00323012
-0.00354372
0.00242515
-0.00310592
0.00162833
-0.00242226
0.000922375
-0.00163594
0.000347475
-0.000854013
-2.72592e-06
-0.000333696
-0.000141252
-5.31765e-05
-0.0001558
4.00424e-05
-0.000163687
1.66078e-05
-0.000215871
-6.12893e-05
-0.000306741
-0.000145162
-0.000412963
-0.000211822
-0.000512239
-0.000258196
-0.00058643
-0.000288691
-0.000624326
-0.000311317
-0.000633469
-0.000335565
-0.000625606
-0.000359655
-0.000605022
-0.0003746
-0.000566732
-0.000370242
-0.00049451
-0.000335188
-0.000357051
-0.000254647
-0.000146906
-9.95733e-05
0.000103891
0.000130128
0.000388614
0.000378763
0.000707089
0.000613721
0.00108943
0.000840982
0.00150683
0.000863329
0.00189861
0.000676583
0.00120599
0.00174076
0.00509751
0.0105981
0.0146276
0.0125615
0.00389555
0.0112294
0.0032271
0.010341
0.00226628
0.00953423
0.000903461
0.00853185
-0.000381874
0.00735296
-0.00139447
0.0060797
-0.00206598
0.00476085
-0.0023334
0.00342964
-0.00221251
0.00216463
-0.00184091
0.00100981
-0.00126744
5.66254e-05
-0.000682759
-0.000566081
-0.000231307
-0.000859865
-3.99119e-05
-0.000957028
4.39863e-05
-0.000976611
5.96253e-05
-0.000991974
3.19713e-05
-0.00103546
-1.7806e-05
-0.0011081
-7.25208e-05
-0.00119711
-0.000122813
-0.00128887
-0.000166433
-0.00137444
-0.000203118
-0.00145157
-0.000234195
-0.00152709
-0.00026004
-0.00161027
-0.000276475
-0.00170962
-0.000275252
-0.00183478
-0.000245078
-0.00199865
-0.000171318
-0.00221665
-3.66535e-05
-0.00248314
0.000166923
-0.0028071
0.000454087
-0.00327104
0.000842697
-0.00398821
0.0013309
-0.00502974
0.00188251
-0.00651695
0.00235054
-0.00825542
0.00241505
-0.00777184
0.00125719
-0.00235732
0.00895051
0.00560343
0.00747197
0.00470564
0.00708012
0.00265813
0.00672932
0.00125426
0.00611938
0.000228075
0.00524699
-0.000522081
0.00417839
-0.000997378
0.00298294
-0.00113795
0.00169136
-0.000920938
0.000430524
-0.000580068
-0.000609452
-0.00022746
-0.00127087
-2.13387e-05
-0.00156336
6.11818e-05
-0.00167781
7.45367e-05
-0.00170758
7.37551e-05
-0.00171322
6.52661e-05
-0.00172825
4.70021e-05
-0.00176712
2.10604e-05
-0.00183109
-8.54548e-06
-0.00191258
-4.13214e-05
-0.00200397
-7.50432e-05
-0.00210319
-0.000103902
-0.00221164
-0.000125741
-0.00233276
-0.000138928
-0.0024686
-0.000140635
-0.00261801
-0.000125842
-0.00277556
-8.75269e-05
-0.0029289
-1.79708e-05
-0.00306251
9.69514e-05
-0.00317481
0.000279224
-0.00327575
0.00055503
-0.00337725
0.000944192
-0.00348605
0.0014397
-0.00356953
0.00196599
-0.00356786
0.00234887
-0.00330984
0.00215702
-0.00194987
-0.000102776
-0.00422386
-0.00082608
0.00648282
0.000742069
0.00313749
0.00140772
0.00199248
0.00164658
0.00101539
0.00158271
0.000291945
0.00121168
-0.000151052
0.000529464
-0.000315161
-0.00036391
-0.000244575
-0.00124113
-4.37148e-05
-0.0018864
6.51966e-05
-0.00222711
0.000113253
-0.0023579
0.000109449
-0.00238064
8.39242e-05
-0.00237012
6.40147e-05
-0.00234887
5.25103e-05
-0.00232824
4.46323e-05
-0.00231731
3.60667e-05
-0.00232129
2.50418e-05
-0.00234068
1.08475e-05
-0.00237445
-7.55399e-06
-0.00242294
-2.65517e-05
-0.00248429
-4.25466e-05
-0.00255649
-5.35457e-05
-0.00263684
-5.85742e-05
-0.00272125
-5.62293e-05
-0.00280312
-4.3968e-05
-0.002873
-1.76499e-05
-0.00291833
2.73586e-05
-0.00291838
9.69984e-05
-0.00284785
0.000208702
-0.00267223
0.000379406
-0.00236018
0.000632141
-0.00190387
0.000983391
-0.00128929
0.00135141
-0.000299591
0.00135917
0.00114769
0.000709746
0.00164259
-0.000597676
-0.00248959
-0.0120484
-0.015577
-0.0090537
-0.00588879
-0.00387404
-0.00284004
-0.00253307
-0.00267212
-0.00297735
-0.00321342
-0.00324947
-0.00317699
-0.0030566
-0.00294004
-0.00284899
-0.00277784
-0.00271816
-0.00266632
-0.00262299
-0.00259066
-0.00257252
-0.00257282
-0.00259219
-0.00262766
-0.00267425
-0.00272601
-0.00277559
-0.00281309
-0.00282445
-0.00279102
-0.00268816
-0.00247383
-0.00208905
-0.0014518
-0.000463598
0.000892235
0.00225555
0.00296934
0.00237585
)
;

boundaryField
{
    floor
    {
        type            calculated;
        value           nonuniform List<scalar> 
36
(
0
0
0
0
0
0
0
0
0
0
0
0
0
0
0
0
0
0
0
-4.83914e-06
-1.23785e-05
-1.85698e-05
-2.36401e-05
-2.11164e-05
-1.96191e-05
-1.84535e-05
-2.35095e-06
-3.78393e-06
-4.35937e-06
-5.04467e-06
-3.65661e-06
-7.64378e-06
-1.10003e-05
-1.12617e-05
-1.38372e-05
-1.19389e-05
)
;
    }
    ceiling
    {
        type            calculated;
        value           nonuniform List<scalar> 
43
(
-4.18423e-05
-4.11774e-05
-4.04776e-05
-2.74134e-05
-2.22691e-05
-1.86043e-05
-1.50282e-05
-1.2003e-05
-9.92734e-06
-8.50019e-06
-7.66529e-06
-7.28595e-06
-7.13837e-06
-7.11087e-06
-7.12242e-06
-7.14031e-06
-7.16754e-06
-7.20928e-06
-7.25885e-06
-7.29061e-06
-7.2898e-06
-7.2558e-06
-7.1824e-06
-7.0808e-06
-6.95279e-06
-6.8096e-06
-6.6488e-06
-6.47545e-06
-6.28407e-06
-6.07903e-06
-5.85935e-06
-5.62544e-06
-5.37671e-06
-5.10607e-06
-4.81148e-06
-4.42496e-06
-4.1396e-06
-4.04936e-06
-4.18147e-06
-3.60376e-06
6.94079e-06
4.17897e-06
-5.33149e-05
)
;
    }
    sWall
    {
        type            calculated;
        value           uniform -0.000241395;
    }
    nWall
    {
        type            calculated;
        value           nonuniform List<scalar> 6(-5.43172e-05 -6.54339e-05 -6.88135e-05 -8.33261e-05 -9.16831e-05 -0.000110141);
    }
    sideWalls
    {
        type            empty;
        value           nonuniform 0();
    }
    glass1
    {
        type            calculated;
        value           nonuniform List<scalar> 9(-6.04581e-05 -0.000163403 -0.000250424 -0.00032465 -0.000387723 -0.000440785 -0.000487285 -0.000543338 -0.000605862);
    }
    glass2
    {
        type            calculated;
        value           nonuniform List<scalar> 2(-0.00028641 -0.000317011);
    }
    sun
    {
        type            calculated;
        value           uniform 0;
    }
    Table_master
    {
        type            calculated;
        value           nonuniform List<scalar> 9(-1.5364e-07 -1.53789e-07 -1.53839e-07 -1.53869e-07 -1.53889e-07 -1.53902e-07 -1.53906e-07 -1.539e-07 -1.5387e-07);
    }
    Table_slave
    {
        type            calculated;
        value           nonuniform List<scalar> 9(1.5353e-07 1.53515e-07 1.53468e-07 1.53431e-07 1.53408e-07 1.53409e-07 1.53413e-07 1.53451e-07 1.53535e-07);
    }
    inlet
    {
        type            calculated;
        value           uniform -0.0106584;
    }
    outlet
    {
        type            calculated;
        value           nonuniform List<scalar> 2(0.0123317 0.00356973);
    }
}


// ************************************************************************* //
