/*--------------------------------*- C++ -*----------------------------------*\
  =========                 |
  \\      /  F ield         | OpenFOAM: The Open Source CFD Toolbox
   \\    /   O peration     | Website:  https://openfoam.org
    \\  /    A nd           | Version:  6
     \\/     M anipulation  |
\*---------------------------------------------------------------------------*/
FoamFile
{
    version     2.0;
    format      ascii;
    class       volScalarField;
    location    "350";
    object      alphat;
}
// * * * * * * * * * * * * * * * * * * * * * * * * * * * * * * * * * * * * * //

dimensions      [1 -1 -1 0 0 0 0];

internalField   nonuniform List<scalar> 
458
(
0.00127969
0.00139804
0.00143322
0.00150345
0.00156851
0.00163061
0.0016934
0.00175582
0.00180622
0.00183677
0.00183802
0.00180072
0.00171259
0.00150755
0.00117052
0.000577873
0.000678532
0.000774767
0.000813653
0.000802549
0.000749868
0.000691691
0.00063987
0.000595199
0.000556571
0.000522988
0.00049361
0.000467698
0.000444196
0.000421969
0.000399642
0.000384435
0.000351713
0.00171101
0.00394511
0.00367279
0.00421672
0.00476783
0.0053292
0.00582216
0.00621859
0.00662086
0.00699207
0.00728406
0.0074503
0.00744426
0.00711749
0.00561876
0.00154415
0.00128633
0.0010453
0.000569718
0.00138494
0.00205231
0.00256665
0.00272098
0.00195551
0.0016416
0.00143012
0.00127502
0.00115686
0.0010636
0.00098615
0.000912997
0.000838781
0.000771056
0.000714989
0.000859005
0.000450522
0.00206986
0.00531177
0.00446211
0.0054066
0.00583125
0.00613221
0.0063641
0.00658933
0.00689247
0.00725896
0.00765811
0.00803574
0.00832054
0.0083616
0.00781355
0.00636113
0.00475933
0.00125233
0.00086815
0.00153665
0.00228871
0.00303405
0.00323623
0.00101306
0.000883184
0.000775557
0.000688667
0.000618728
0.000562185
0.000516242
0.000479257
0.000450787
0.000501478
0.000586884
0.0010084
0.000526593
0.00241388
0.00673841
0.00437462
0.00560853
0.00584372
0.00583455
0.00583155
0.00594601
0.00619497
0.00656797
0.00704592
0.00755096
0.00797346
0.00818314
0.00808592
0.00764008
0.00651053
0.00355312
0.00143566
0.00179767
0.00250582
0.00340702
0.00420343
0.0042541
0.00114911
0.0010499
0.000980416
0.000927713
0.000882558
0.000839662
0.000798672
0.000755534
0.000705635
0.000660253
0.000653552
0.00119484
0.000602706
0.00276509
0.00863974
0.00459876
0.00534552
0.00566845
0.00548875
0.0053588
0.00545122
0.00569967
0.00608888
0.00661804
0.00716916
0.00756667
0.0077416
0.0077168
0.00755978
0.00709453
0.00585572
0.0052319
0.00532102
0.00568283
0.00610443
0.00637657
0.00629293
0.00534483
0.00484066
0.0045488
0.00433387
0.00411788
0.00382362
0.0033984
0.00286945
0.00227889
0.00171886
0.00128724
0.00122089
0.0010239
0.000802254
0.000853749
0.000929495
0.0031417
0.0107755
0.00623706
0.00501353
0.00542912
0.005445
0.00522126
0.00531905
0.00555472
0.00594614
0.00647833
0.00701779
0.00738302
0.00746766
0.00734385
0.00720404
0.00714969
0.00704308
0.00723166
0.00761464
0.00790303
0.00799252
0.00786384
0.0075314
0.0070193
0.00657818
0.00621727
0.00588994
0.00556529
0.00521876
0.00477346
0.00420976
0.00353211
0.00279552
0.00213802
0.00157159
0.00127634
0.0011019
0.00138424
0.000965094
0.00350719
0.0123559
0.00910312
0.00617119
0.00547227
0.00557215
0.00553376
0.00551594
0.00565201
0.00602069
0.00656338
0.00710286
0.00742434
0.00741008
0.00719146
0.00710399
0.00743589
0.00801824
0.00860259
0.00897144
0.00901607
0.00877782
0.00833366
0.0077639
0.00715719
0.00662277
0.00617837
0.0057963
0.00545542
0.00515049
0.00487653
0.00453974
0.00405382
0.00344039
0.00282511
0.00225336
0.0018744
0.0017106
0.00162434
0.00115401
0.00359265
0.0113147
0.00970723
0.00829419
0.00724923
0.00672719
0.00613177
0.00578601
0.00584582
0.00625807
0.00684874
0.00737768
0.00761272
0.00746561
0.00722305
0.00742539
0.00822202
0.00881313
0.00915855
0.00920833
0.00892247
0.00837373
0.00765836
0.00688501
0.00617704
0.00562019
0.00520505
0.00488869
0.00464667
0.00447435
0.00437626
0.00433803
0.00419151
0.0038394
0.00350887
0.00332759
0.00340437
0.00358366
0.00422341
0.00177715
0.00351474
0.00423199
0.00467447
0.00492136
0.00496982
0.00492224
0.00499008
0.00531982
0.00591903
0.00666367
0.0073565
0.0077858
0.00779069
0.00741021
0.0074549
0.00791304
0.00836848
0.00855024
0.0084959
0.00818209
0.00760622
0.00683141
0.00598586
0.00521553
0.00462318
0.0042135
0.00392931
0.00371821
0.00354918
0.00340317
0.00326574
0.00312553
0.00300708
0.0029075
0.00283967
0.00279699
0.00271996
0.00257151
0.00239553
0.00165882
0.00152231
0.00267772
0.00374718
0.0046834
0.00560463
0.00654567
0.0073385
0.00789949
0.00811872
0.0079401
0.00750486
0.00704179
0.00712116
0.00731706
0.00729919
0.00707939
0.00667429
0.00608352
0.00536287
0.00461813
0.00396135
0.00348265
0.00317742
0.00299167
0.00287514
0.00279794
0.00274513
0.00271039
0.00269389
0.00270522
0.00272328
0.00273948
0.00274132
0.00269834
0.00256595
0.00233531
0.00204867
0.00133723
0.00238308
0.00483608
0.00641681
0.00751692
0.00835566
0.00843322
0.00816203
0.00780578
0.00699651
0.00604438
0.00549472
0.00531808
0.00526133
0.00509645
0.0048056
0.00440709
0.00391288
0.00337363
0.00287934
0.00250559
0.00227296
0.00214285
0.00208894
0.00208715
0.00212039
0.00217861
0.00225441
0.0023397
0.00244012
0.00255063
0.00266686
0.00278007
0.00287182
0.00291878
0.00287591
0.00283981
0.00265419
0.00135569
0.00250492
0.00257096
0.00262981
0.00292176
0.00275622
0.00244231
0.00209687
0.0018293
0.00163938
0.00144384
0.0012634
0.00111044
0.000984026
0.000894718
0.000835015
0.000790936
0.000754524
0.000722591
0.000696008
0.000678052
0.000671284
0.000675611
0.000689134
0.00070987
0.000735706
0.000765744
0.000799844
0.000838234
0.000881572
0.000931185
0.000986851
0.00104859
0.00111681
0.00119195
0.00127407
0.0013729
0.00141226
0.0013814
0.00128574
0.0011892
)
;

boundaryField
{
    floor
    {
        type            compressible::alphatWallFunction;
        Prt             0.85;
        value           nonuniform List<scalar> 
36
(
0.000166054
8.10334e-05
9.60185e-05
0.000110094
0.000115722
0.000114119
0.000106475
9.79583e-05
9.02988e-05
8.36353e-05
7.78235e-05
7.27301e-05
6.82411e-05
6.42538e-05
6.06132e-05
5.71475e-05
5.36426e-05
5.12411e-05
4.60316e-05
4.6031e-05
6.15959e-05
7.32797e-05
8.47605e-05
0.000114085
0.000121505
0.000132317
0.000166052
0.000216882
0.000181981
0.000148627
8.10325e-05
0.000148625
7.98052e-05
0.000177322
0.000123551
0.000202285
)
;
    }
    ceiling
    {
        type            compressible::alphatWallFunction;
        Prt             0.85;
        value           nonuniform List<scalar> 
43
(
0.000341971
0.000350356
0.00035781
0.000394613
0.000373882
0.00033415
0.000289779
0.000254865
0.000229743
0.000203533
0.000178988
0.000157867
0.000140157
0.000127486
0.000118933
0.000112572
0.000107284
0.000102622
9.87222e-05
9.60774e-05
9.50784e-05
9.5717e-05
9.77102e-05
0.000100758
0.000104539
0.000108916
0.00011386
0.000119396
0.000125609
0.000132678
0.000140556
0.000149234
0.000158755
0.000169164
0.000180455
0.000193934
0.000199272
0.000195089
0.000182055
0.000168789
0.000468345
0.000555529
0.000326334
)
;
    }
    sWall
    {
        type            compressible::alphatWallFunction;
        Prt             0.85;
        value           uniform 0.000340729;
    }
    nWall
    {
        type            compressible::alphatWallFunction;
        Prt             0.85;
        value           nonuniform List<scalar> 6(0.000132101 0.000137141 0.000163561 0.000188746 0.000191256 0.000168452);
    }
    sideWalls
    {
        type            empty;
    }
    glass1
    {
        type            compressible::alphatWallFunction;
        Prt             0.85;
        value           nonuniform List<scalar> 9(0.000176469 0.000233702 0.000280229 0.000324107 0.000368286 0.000415055 0.000459931 0.00047049 0.000461227);
    }
    glass2
    {
        type            compressible::alphatWallFunction;
        Prt             0.85;
        value           nonuniform List<scalar> 2(0.000246072 0.000230548);
    }
    sun
    {
        type            compressible::alphatWallFunction;
        Prt             0.85;
        value           nonuniform List<scalar> 
14
(
0.00018109
0.000197192
0.000201953
0.00021142
0.000220145
0.000228435
0.000236783
0.000245048
0.000251698
0.000255718
0.000255881
0.000250971
0.000239326
0.000211968
)
;
    }
    Table_master
    {
        type            compressible::alphatWallFunction;
        Prt             0.85;
        value           nonuniform List<scalar> 9(0.000144257 0.000125848 0.00011035 9.76491e-05 8.7285e-05 7.88007e-05 7.18289e-05 6.61599e-05 6.17585e-05);
    }
    Table_slave
    {
        type            compressible::alphatWallFunction;
        Prt             0.85;
        value           nonuniform List<scalar> 9(0.000163252 0.00014943 0.00013966 0.000132196 0.000125761 0.000119612 0.000113701 0.000107441 0.000100145);
    }
    inlet
    {
        type            fixedValue;
        value           uniform 1.94e-05;
    }
    outlet
    {
        type            zeroGradient;
    }
}


// ************************************************************************* //
