/*--------------------------------*- C++ -*----------------------------------*\
  =========                 |
  \\      /  F ield         | OpenFOAM: The Open Source CFD Toolbox
   \\    /   O peration     | Website:  https://openfoam.org
    \\  /    A nd           | Version:  6
     \\/     M anipulation  |
\*---------------------------------------------------------------------------*/
FoamFile
{
    version     2.0;
    format      ascii;
    class       volScalarField;
    location    "350";
    object      k;
}
// * * * * * * * * * * * * * * * * * * * * * * * * * * * * * * * * * * * * * //

dimensions      [0 2 -2 0 0 0 0];

internalField   nonuniform List<scalar> 
458
(
0.00239997
0.00285921
0.00300466
0.00330628
0.00359853
0.003889
0.00419417
0.00450892
0.00477129
0.00493374
0.00494019
0.00474162
0.00428901
0.00332381
0.0020043
0.000489063
0.000674174
0.000878922
0.000969408
0.000943184
0.000823459
0.000700675
0.000599646
0.000518866
0.000453723
0.000400638
0.000356908
0.000320434
0.000289053
0.000260861
0.000233998
0.000216543
0.000181279
0.0042958
0.00786238
0.0044685
0.00472926
0.0051199
0.00559572
0.00615568
0.00679042
0.00745435
0.00799924
0.00826956
0.0081663
0.00768384
0.0067492
0.00536394
0.00348768
0.00242043
0.00159857
0.000475398
0.00103966
0.00143135
0.00162066
0.00164343
0.00139947
0.00113267
0.000917964
0.000755072
0.000630899
0.000534891
0.000459088
0.000396925
0.000344932
0.000307102
0.000285126
0.000495023
0.000297422
0.00629498
0.0140696
0.00528087
0.00510336
0.00536352
0.00576562
0.006303
0.00697779
0.00769931
0.00830157
0.00866392
0.00870249
0.00838823
0.00762947
0.00652284
0.00530373
0.0042444
0.00229451
0.00110359
0.00149377
0.00176003
0.00193099
0.00193624
0.00150298
0.00114232
0.000880887
0.000694571
0.000560667
0.000462883
0.000390326
0.000336408
0.000297634
0.000276929
0.00028007
0.000767562
0.000406345
0.00857297
0.0227452
0.00635476
0.00508193
0.00515067
0.00547802
0.0060249
0.0068188
0.00759939
0.00821742
0.00863184
0.00875221
0.00847887
0.00778666
0.00685254
0.00593356
0.00504804
0.00377859
0.00301577
0.00269233
0.00258788
0.00259387
0.002575
0.00243934
0.0019346
0.00161519
0.00140864
0.00126138
0.00114167
0.00103345
0.000935064
0.000836819
0.000729954
0.000548646
0.000433083
0.00110823
0.000532333
0.0112642
0.0345368
0.00900181
0.00515671
0.00489236
0.00518958
0.00594582
0.00708255
0.00791818
0.00851108
0.0089263
0.00902527
0.00865396
0.00783142
0.00678275
0.00582219
0.0050418
0.00437263
0.00415575
0.00385604
0.00364807
0.00348044
0.00326684
0.00297295
0.00263837
0.00239437
0.00223302
0.00210118
0.00196436
0.0017991
0.00160037
0.00137858
0.00114545
0.00089186
0.000675888
0.000917469
0.00102299
0.000943861
0.00106952
0.00126773
0.0145592
0.0473288
0.0158282
0.00652167
0.00527495
0.00539475
0.00674466
0.0081393
0.00883481
0.00930496
0.00962984
0.00963928
0.00911042
0.00802397
0.0066697
0.00546903
0.00467297
0.00432653
0.00431772
0.00434868
0.00426784
0.00403615
0.00368464
0.00327678
0.00292447
0.00271142
0.00258524
0.0024788
0.00235643
0.00219736
0.0019781
0.00172268
0.00145214
0.00117964
0.000955868
0.000909965
0.00101868
0.00104034
0.00163567
0.00136632
0.0181634
0.0556676
0.0280755
0.0134411
0.0093788
0.00860551
0.00973574
0.0102033
0.0103777
0.0105753
0.0107382
0.0105807
0.0097951
0.00835613
0.00663355
0.00519512
0.00441245
0.00429951
0.00449623
0.00460124
0.00446285
0.0041241
0.00368565
0.00325138
0.00292814
0.00275959
0.00268322
0.00263554
0.00258611
0.00251602
0.00239499
0.00219434
0.00195275
0.00169653
0.00149219
0.00139636
0.00147636
0.00170402
0.00225046
0.00195329
0.0190891
0.0567277
0.0386457
0.0279467
0.0209458
0.0173202
0.0148046
0.0131889
0.0124506
0.0122714
0.0122003
0.0117574
0.0105504
0.00861093
0.00645446
0.00487506
0.00422862
0.00424685
0.00439475
0.00436814
0.00410058
0.00369468
0.00326823
0.00291501
0.00269323
0.00260157
0.0025935
0.00263302
0.00270732
0.00281401
0.00295049
0.00307563
0.00312334
0.0031641
0.00332823
0.00391382
0.00516181
0.00684368
0.0127423
0.00463798
0.0183106
0.0264914
0.0243481
0.021701
0.0189751
0.0166549
0.015012
0.0142237
0.0140707
0.0141038
0.0138551
0.0129076
0.0109094
0.00817182
0.00551107
0.00428894
0.00387649
0.00380807
0.00375248
0.00356826
0.00326171
0.00290261
0.00258179
0.00235718
0.00224629
0.00223023
0.00227902
0.00237433
0.00251024
0.00268635
0.00290272
0.00315659
0.00347388
0.00388504
0.00442387
0.00505758
0.00563862
0.00599948
0.00617694
0.00404559
0.0068947
0.0107307
0.0134243
0.015126
0.0163247
0.0171194
0.0171914
0.0164871
0.0150146
0.0126787
0.00879982
0.00578072
0.00409866
0.00338886
0.00308975
0.00291733
0.0027282
0.00248324
0.00221509
0.001972
0.00179029
0.00169291
0.00167199
0.00170747
0.0017831
0.00189149
0.00203227
0.00221042
0.00243707
0.00273507
0.00310244
0.00353921
0.0040221
0.00446038
0.00468644
0.00456297
0.00411741
0.00262905
0.00806164
0.0204436
0.023449
0.023829
0.0232732
0.0207297
0.0173394
0.013402
0.0096703
0.00652335
0.0043335
0.00317355
0.00256902
0.0022357
0.00201106
0.00181317
0.00161316
0.00142237
0.00126974
0.00117531
0.0011415
0.00115382
0.0012041
0.0012867
0.0013995
0.00154384
0.00172333
0.00194294
0.00221459
0.00254596
0.00294702
0.00341894
0.00393501
0.00442941
0.00472319
0.00499547
0.0043239
0.00270192
0.0090029
0.00948136
0.00992012
0.0123328
0.011026
0.00869081
0.00642638
0.00490075
0.00394072
0.00305924
0.00234354
0.00181097
0.00142238
0.00117605
0.00102441
0.000919159
0.000836508
0.000767222
0.000711823
0.000675574
0.000662156
0.000670717
0.00069783
0.000740451
0.000795321
0.000861581
0.000940016
0.00103241
0.00114191
0.00127405
0.00143092
0.00161555
0.00183262
0.00208753
0.00238514
0.00276966
0.00293095
0.00280443
0.00242956
0.00207899
)
;

boundaryField
{
    floor
    {
        type            kqRWallFunction;
        value           nonuniform List<scalar> 
36
(
0.0020043
0.000489063
0.000674174
0.000878922
0.000969408
0.000943184
0.000823459
0.000700675
0.000599646
0.000518866
0.000453723
0.000400638
0.000356908
0.000320434
0.000289053
0.000260861
0.000233998
0.000216543
0.000181279
0.000181279
0.000297422
0.000406345
0.000532333
0.000943861
0.00106952
0.00126773
0.0020043
0.00348768
0.00242043
0.00159857
0.000489063
0.00159857
0.000475398
0.00229451
0.00110359
0.00301577
)
;
    }
    ceiling
    {
        type            kqRWallFunction;
        value           nonuniform List<scalar> 
43
(
0.0090029
0.00948136
0.00992012
0.0123328
0.011026
0.00869081
0.00642638
0.00490075
0.00394072
0.00305924
0.00234354
0.00181097
0.00142238
0.00117605
0.00102441
0.000919159
0.000836508
0.000767222
0.000711823
0.000675574
0.000662156
0.000670717
0.00069783
0.000740451
0.000795321
0.000861581
0.000940016
0.00103241
0.00114191
0.00127405
0.00143092
0.00161555
0.00183262
0.00208753
0.00238514
0.00276966
0.00293095
0.00280443
0.00242956
0.00207899
0.0183106
0.0264914
0.00806164
)
;
    }
    sWall
    {
        type            kqRWallFunction;
        value           uniform 0.0090029;
    }
    nWall
    {
        type            kqRWallFunction;
        value           nonuniform List<scalar> 6(0.00126773 0.00136632 0.00195329 0.00262905 0.00270192 0.00207899);
    }
    sideWalls
    {
        type            empty;
    }
    glass1
    {
        type            kqRWallFunction;
        value           nonuniform List<scalar> 9(0.00239997 0.0042958 0.00629498 0.00857297 0.0112642 0.0145592 0.0181634 0.0190891 0.0183106);
    }
    glass2
    {
        type            kqRWallFunction;
        value           nonuniform List<scalar> 2(0.00463798 0.00404559);
    }
    sun
    {
        type            kqRWallFunction;
        value           nonuniform List<scalar> 
14
(
0.00239997
0.00285921
0.00300466
0.00330628
0.00359853
0.003889
0.00419417
0.00450892
0.00477129
0.00493374
0.00494019
0.00474162
0.00428901
0.00332381
)
;
    }
    Table_master
    {
        type            kqRWallFunction;
        value           nonuniform List<scalar> 9(0.00150298 0.00114232 0.000880887 0.000694571 0.000560667 0.000462883 0.000390326 0.000336408 0.000297634);
    }
    Table_slave
    {
        type            kqRWallFunction;
        value           nonuniform List<scalar> 9(0.0019346 0.00161519 0.00140864 0.00126138 0.00114167 0.00103345 0.000935064 0.000836819 0.000729954);
    }
    inlet
    {
        type            turbulentIntensityKineticEnergyInlet;
        intensity       0.05;
        value           uniform 0.000937501;
    }
    outlet
    {
        type            zeroGradient;
    }
}


// ************************************************************************* //
