/*--------------------------------*- C++ -*----------------------------------*\
  =========                 |
  \\      /  F ield         | OpenFOAM: The Open Source CFD Toolbox
   \\    /   O peration     | Website:  https://openfoam.org
    \\  /    A nd           | Version:  6
     \\/     M anipulation  |
\*---------------------------------------------------------------------------*/
FoamFile
{
    version     2.0;
    format      ascii;
    class       volScalarField;
    location    "350";
    object      T;
}
// * * * * * * * * * * * * * * * * * * * * * * * * * * * * * * * * * * * * * //

dimensions      [0 0 0 1 0 0 0];

internalField   nonuniform List<scalar> 
458
(
302.773
302.498
302.485
302.481
302.477
302.473
302.469
302.464
302.457
302.448
302.44
302.437
302.442
302.46
302.497
302.669
302.645
302.636
302.643
302.651
302.658
302.665
302.672
302.679
302.685
302.692
302.699
302.705
302.712
302.719
302.727
302.737
302.763
302.956
302.532
302.507
302.508
302.509
302.509
302.506
302.499
302.483
302.459
302.435
302.422
302.426
302.444
302.464
302.474
302.484
302.507
302.675
302.619
302.615
302.625
302.637
302.642
302.646
302.65
302.654
302.657
302.661
302.665
302.669
302.674
302.681
302.691
302.706
302.748
303.15
302.578
302.538
302.548
302.56
302.57
302.573
302.566
302.537
302.489
302.44
302.413
302.416
302.438
302.459
302.471
302.48
302.499
302.628
302.604
302.606
302.624
302.646
302.647
302.649
302.652
302.654
302.657
302.66
302.663
302.666
302.669
302.677
302.685
302.699
302.743
303.348
302.637
302.571
302.59
302.62
302.648
302.666
302.662
302.613
302.53
302.447
302.403
302.406
302.436
302.465
302.482
302.489
302.497
302.508
302.528
302.561
302.6
302.641
302.677
302.706
302.727
302.744
302.759
302.771
302.781
302.79
302.797
302.801
302.771
302.739
302.722
302.747
303.543
302.713
302.607
302.624
302.668
302.719
302.763
302.765
302.69
302.567
302.45
302.392
302.396
302.436
302.479
302.507
302.516
302.523
302.539
302.568
302.608
302.654
302.7
302.74
302.776
302.802
302.823
302.839
302.851
302.858
302.859
302.856
302.847
302.823
302.786
302.752
302.751
302.849
302.934
302.935
303.721
302.812
302.664
302.656
302.697
302.758
302.839
302.841
302.734
302.577
302.443
302.377
302.387
302.443
302.506
302.55
302.572
302.585
302.608
302.644
302.688
302.735
302.78
302.82
302.852
302.876
302.895
302.908
302.916
302.918
302.913
302.903
302.887
302.862
302.827
302.787
302.77
302.811
302.844
302.886
303.878
302.976
302.811
302.764
302.776
302.825
302.902
302.874
302.73
302.545
302.401
302.345
302.378
302.463
302.554
302.618
302.654
302.677
302.706
302.744
302.786
302.829
302.868
302.901
302.926
302.945
302.957
302.965
302.967
302.965
302.956
302.94
302.921
302.896
302.864
302.828
302.804
302.812
302.826
302.858
304.109
303.435
303.243
303.112
303.046
303.049
303.026
302.876
302.644
302.429
302.304
302.294
302.382
302.513
302.636
302.717
302.761
302.786
302.815
302.849
302.885
302.92
302.949
302.971
302.987
302.997
303.002
303.004
303.001
302.995
302.986
302.971
302.952
302.929
302.905
302.879
302.865
302.87
302.89
303.035
304.439
304.125
303.88
303.647
303.461
303.315
303.041
302.662
302.336
302.161
302.145
302.253
302.441
302.626
302.772
302.835
302.868
302.891
302.916
302.944
302.97
302.993
303.011
303.023
303.029
303.032
303.031
303.028
303.023
303.017
303.012
303.008
303.007
303.01
303.021
303.043
303.076
303.111
303.139
303.204
297.548
299.174
300.166
300.565
300.777
301.036
301.351
301.705
302.043
302.356
302.673
302.828
302.904
302.939
302.96
302.979
302.999
303.018
303.034
303.045
303.053
303.056
303.057
303.057
303.055
303.053
303.051
303.049
303.048
303.048
303.051
303.057
303.07
303.089
303.116
303.144
303.171
303.199
297.918
299.272
300.118
300.601
301.018
301.438
301.869
302.305
302.593
302.789
302.911
302.97
303
303.019
303.034
303.047
303.059
303.068
303.075
303.078
303.079
303.079
303.079
303.077
303.076
303.075
303.074
303.073
303.072
303.073
303.074
303.079
303.087
303.101
303.118
303.141
303.144
303.18
299.508
299.467
299.465
300.538
301.236
301.815
302.289
302.59
302.771
302.896
302.972
303.019
303.049
303.067
303.078
303.087
303.093
303.098
303.102
303.104
303.105
303.104
303.103
303.101
303.1
303.098
303.096
303.095
303.093
303.092
303.09
303.09
303.09
303.091
303.095
303.103
303.114
303.123
303.127
303.17
)
;

boundaryField
{
    floor
    {
        type            wallHeatTransfer;
        Tinf            uniform 305.2;
        alphaWall       uniform 0.24;
        value           nonuniform List<scalar> 
36
(
302.798
303.134
303.066
303.021
303.014
303.025
303.049
303.077
303.105
303.132
303.158
303.183
303.208
303.231
303.253
303.276
303.301
303.323
303.374
303.374
303.277
303.223
303.185
303.194
303.252
303.233
302.798
302.719
302.766
302.832
303.134
302.832
303.143
302.785
302.984
302.764
)
;
    }
    ceiling
    {
        type            wallHeatTransfer;
        Tinf            uniform 303.2;
        alphaWall       uniform 0.24;
        value           nonuniform List<scalar> 
43
(
299.734
299.691
299.685
300.682
301.347
301.902
302.353
302.638
302.808
302.925
302.996
303.04
303.068
303.085
303.095
303.103
303.109
303.114
303.118
303.12
303.12
303.12
303.119
303.117
303.115
303.113
303.111
303.11
303.108
303.106
303.104
303.103
303.103
303.103
303.106
303.113
303.122
303.13
303.135
303.173
304.381
304.088
298.255
)
;
    }
    sWall
    {
        type            wallHeatTransfer;
        Tinf            uniform 315.2;
        alphaWall       uniform 0.36;
        value           uniform 300.912;
    }
    nWall
    {
        type            wallHeatTransfer;
        Tinf            uniform 307.2;
        alphaWall       uniform 0.36;
        value           nonuniform List<scalar> 6(303.727 303.667 303.552 303.774 303.752 303.8);
    }
    sideWalls
    {
        type            empty;
    }
    glass1
    {
        type            wallHeatTransfer;
        Tinf            uniform 315.2;
        alphaWall       uniform 4.3;
        value           nonuniform List<scalar> 9(311.226 310.593 310.19 309.883 309.626 309.39 309.195 309.258 309.485);
    }
    glass2
    {
        type            wallHeatTransfer;
        Tinf            uniform 307.2;
        alphaWall       uniform 4.3;
        value           nonuniform List<scalar> 2(305.587 305.708);
    }
    sun
    {
        type            wallHeatTransfer;
        Tinf            uniform 305.2;
        alphaWall       uniform 0.24;
        value           nonuniform List<scalar> 
14
(
303.025
302.761
302.743
302.731
302.719
302.709
302.698
302.687
302.675
302.664
302.657
302.657
302.671
302.711
)
;
    }
    Table_master
    {
        type            zeroGradient;
    }
    Table_slave
    {
        type            zeroGradient;
    }
    inlet
    {
        type            fixedValue;
        value           uniform 295.15;
    }
    outlet
    {
        type            zeroGradient;
    }
}


// ************************************************************************* //
