/*--------------------------------*- C++ -*----------------------------------*\
  =========                 |
  \\      /  F ield         | OpenFOAM: The Open Source CFD Toolbox
   \\    /   O peration     | Website:  https://openfoam.org
    \\  /    A nd           | Version:  6
     \\/     M anipulation  |
\*---------------------------------------------------------------------------*/
FoamFile
{
    version     2.0;
    format      ascii;
    class       volScalarField;
    location    "80";
    object      k;
}
// * * * * * * * * * * * * * * * * * * * * * * * * * * * * * * * * * * * * * //

dimensions      [0 2 -2 0 0 0 0];

internalField   nonuniform List<scalar> 
458
(
0.00431046
0.00540434
0.00603109
0.00683921
0.00774494
0.00872851
0.00959823
0.0101851
0.0100097
0.00906809
0.00804135
0.00695014
0.00588407
0.00493939
0.00398524
0.00141914
0.00196144
0.00268766
0.00327505
0.00340244
0.00301394
0.00259324
0.00225134
0.00198223
0.00176801
0.00159564
0.00145473
0.00133602
0.00123396
0.0011404
0.00104597
0.000936746
0.000791839
0.00648429
0.011502
0.00879667
0.00980157
0.0112893
0.0130758
0.0147659
0.0160388
0.0162753
0.0150356
0.013306
0.0114995
0.00970441
0.00793628
0.00591115
0.00506271
0.0040912
0.00296787
0.00128117
0.00294334
0.004293
0.00528717
0.00569236
0.00493917
0.00402007
0.00328463
0.00274
0.00233385
0.00202637
0.00178887
0.00160325
0.00143374
0.0012934
0.00120406
0.00114866
0.000862029
0.00859584
0.018234
0.00994572
0.0102956
0.0116978
0.013405
0.0147056
0.0158741
0.0165927
0.0159486
0.0144658
0.0127343
0.0110716
0.00937826
0.0076085
0.0062911
0.00531237
0.00370677
0.00131229
0.0032885
0.00473648
0.00588299
0.0063598
0.00502105
0.0038326
0.00294856
0.00231235
0.00185354
0.00151716
0.00126384
0.00106869
0.000952228
0.000932506
0.000985896
0.00110179
0.000872241
0.0109008
0.0274542
0.0117369
0.0108466
0.0122585
0.0137147
0.014449
0.0156265
0.0165841
0.0162614
0.0148108
0.0129828
0.0112824
0.00975155
0.00829531
0.00700695
0.00596279
0.00467999
0.00430918
0.00407139
0.0049821
0.00635025
0.00749253
0.00789921
0.00657087
0.00555887
0.00479808
0.00420474
0.00371071
0.00326917
0.00285503
0.0024524
0.00204332
0.00147385
0.00114828
0.00116173
0.000902898
0.0135701
0.0399153
0.0161478
0.0126642
0.014375
0.0149303
0.0151428
0.016369
0.0174523
0.0170876
0.0153289
0.0131104
0.0111543
0.00965744
0.00850919
0.00757641
0.00688407
0.00657567
0.00729983
0.00808484
0.00908452
0.0100179
0.0104883
0.0102733
0.00941413
0.00851209
0.00779604
0.00711875
0.00638163
0.00557953
0.00472526
0.00383343
0.00292279
0.00202188
0.00139249
0.00120521
0.000938032
0.000842612
0.000748402
0.000947629
0.0167744
0.0536928
0.0262209
0.0177755
0.0181821
0.0168229
0.0166762
0.0180167
0.0191743
0.0185325
0.0161598
0.013326
0.0110418
0.00962618
0.0089153
0.00862423
0.00875488
0.00951482
0.0109019
0.0123199
0.0133095
0.0136401
0.0132239
0.0121675
0.0108293
0.00969345
0.00875635
0.00786052
0.00693305
0.00596458
0.00497008
0.00397352
0.00300773
0.00213436
0.00150436
0.00122855
0.00100197
0.000919468
0.00178082
0.00132491
0.0196431
0.0620092
0.04073
0.0287659
0.0225602
0.0190902
0.0188033
0.0204735
0.021666
0.0204365
0.0170943
0.0135411
0.0111568
0.0101614
0.0100843
0.0105212
0.0114416
0.0129197
0.0146357
0.0158916
0.0162111
0.0156566
0.0143846
0.0126792
0.0109546
0.00952936
0.00840638
0.0074062
0.00641945
0.00543233
0.00446206
0.00353395
0.00267885
0.00195659
0.00146027
0.0012385
0.00109894
0.0011003
0.00150631
0.00125751
0.0202305
0.0551853
0.041928
0.0312524
0.0236209
0.0205236
0.021381
0.0238294
0.0247927
0.0222949
0.0174542
0.0134577
0.0117735
0.011425
0.0118311
0.0127058
0.0139819
0.0155806
0.0168958
0.017399
0.0168536
0.0154394
0.0134971
0.0114588
0.00964545
0.00826141
0.00717401
0.00620615
0.00528604
0.00440849
0.00358849
0.00284436
0.00219829
0.00169333
0.00138318
0.00132225
0.00148014
0.00205092
0.00509821
0.00199979
0.0192182
0.0267132
0.0239502
0.0207522
0.0190588
0.0209082
0.0250713
0.0283275
0.0277082
0.0221826
0.0163635
0.0135104
0.0126165
0.0127005
0.0133031
0.0142022
0.0152418
0.0161871
0.0165992
0.0161916
0.0150009
0.0132585
0.0113023
0.00946488
0.0079527
0.00676037
0.00576403
0.00486403
0.00402823
0.00326513
0.00259683
0.00204634
0.00163627
0.00139566
0.00136607
0.00162363
0.00223448
0.00305624
0.00350578
0.00207115
0.00490693
0.0096306
0.0191497
0.0283253
0.0333225
0.0318161
0.0240906
0.0176586
0.0143619
0.0131558
0.0129668
0.0132558
0.0137566
0.0142957
0.0146998
0.0147638
0.0142926
0.0132743
0.0118994
0.0104226
0.00905552
0.00789952
0.00694984
0.00613208
0.00537403
0.00463829
0.0039219
0.00324372
0.00263444
0.00212912
0.00176111
0.00155845
0.0015447
0.00174318
0.00215079
0.00264355
0.00290888
0.00219862
0.0112131
0.0533952
0.0511976
0.0419666
0.0325361
0.0238377
0.0174909
0.0141287
0.0126565
0.0121853
0.0121878
0.0123936
0.0126581
0.0128783
0.0129565
0.0128014
0.0123592
0.0116605
0.010815
0.00994929
0.00915108
0.00844302
0.00780113
0.00718492
0.00656222
0.00591831
0.00525537
0.00458856
0.00394256
0.00334815
0.00283932
0.00245168
0.00221995
0.0021685
0.00229213
0.0025744
0.00414831
0.00276788
0.0124691
0.013721
0.0149036
0.019174
0.0144324
0.0107916
0.00891587
0.00757115
0.00660416
0.00605169
0.00580999
0.00573859
0.00574445
0.0057666
0.0057604
0.00569122
0.00553489
0.00528357
0.00495388
0.00458672
0.00422797
0.00390667
0.00362859
0.00338434
0.00316032
0.00294605
0.00273735
0.00253604
0.00234767
0.002179
0.00203597
0.00192255
0.00184099
0.00179336
0.00178348
0.00181769
0.00190245
0.00204883
0.00242348
0.00239619
)
;

boundaryField
{
    floor
    {
        type            kqRWallFunction;
        value           nonuniform List<scalar> 
36
(
0.00398524
0.00141914
0.00196144
0.00268766
0.00327505
0.00340244
0.00301394
0.00259324
0.00225134
0.00198223
0.00176801
0.00159564
0.00145473
0.00133602
0.00123396
0.0011404
0.00104597
0.000936746
0.000791839
0.000791839
0.000862029
0.000872241
0.000902898
0.000842612
0.000748402
0.000947629
0.00398524
0.00506271
0.0040912
0.00296787
0.00141914
0.00296787
0.00128117
0.00370677
0.00131229
0.00430918
)
;
    }
    ceiling
    {
        type            kqRWallFunction;
        value           nonuniform List<scalar> 
43
(
0.0124691
0.013721
0.0149036
0.019174
0.0144324
0.0107916
0.00891587
0.00757115
0.00660416
0.00605169
0.00580999
0.00573859
0.00574445
0.0057666
0.0057604
0.00569122
0.00553489
0.00528357
0.00495388
0.00458672
0.00422797
0.00390667
0.00362859
0.00338434
0.00316032
0.00294605
0.00273735
0.00253604
0.00234767
0.002179
0.00203597
0.00192255
0.00184099
0.00179336
0.00178348
0.00181769
0.00190245
0.00204883
0.00242348
0.00239619
0.0192182
0.0267132
0.0112131
)
;
    }
    sWall
    {
        type            kqRWallFunction;
        value           uniform 0.0124691;
    }
    nWall
    {
        type            kqRWallFunction;
        value           nonuniform List<scalar> 6(0.000947629 0.00132491 0.00125751 0.00219862 0.00276788 0.00239619);
    }
    sideWalls
    {
        type            empty;
    }
    glass1
    {
        type            kqRWallFunction;
        value           nonuniform List<scalar> 9(0.00431046 0.00648429 0.00859584 0.0109008 0.0135701 0.0167744 0.0196431 0.0202305 0.0192182);
    }
    glass2
    {
        type            kqRWallFunction;
        value           nonuniform List<scalar> 2(0.00199979 0.00207115);
    }
    sun
    {
        type            kqRWallFunction;
        value           nonuniform List<scalar> 
14
(
0.00431046
0.00540434
0.00603109
0.00683921
0.00774494
0.00872851
0.00959823
0.0101851
0.0100097
0.00906809
0.00804135
0.00695014
0.00588407
0.00493939
)
;
    }
    Table_master
    {
        type            kqRWallFunction;
        value           nonuniform List<scalar> 9(0.00502105 0.0038326 0.00294856 0.00231235 0.00185354 0.00151716 0.00126384 0.00106869 0.000952228);
    }
    Table_slave
    {
        type            kqRWallFunction;
        value           nonuniform List<scalar> 9(0.00657087 0.00555887 0.00479808 0.00420474 0.00371071 0.00326917 0.00285503 0.0024524 0.00204332);
    }
    inlet
    {
        type            turbulentIntensityKineticEnergyInlet;
        intensity       0.05;
        value           uniform 0.0009375;
    }
    outlet
    {
        type            zeroGradient;
    }
}


// ************************************************************************* //
