/*--------------------------------*- C++ -*----------------------------------*=========                 |
  \      /  F ield         | OpenFOAM: The Open Source CFD Toolbox
   \    /   O peration     | Website:  https://openfoam.org
    \  /    A nd           | Version:  6
     \/     M anipulation  |
\*---------------------------------------------------------------------------*/
FoamFile
{
    version     2.0;
    format      ascii;
    class       volScalarField;
    location    "80";
    object      PMV;
}
// * * * * * * * * * * * * * * * * * * * * * * * * * * * * * * * * * * * * * //

dimensions      [0 0 0 0 0 0 0];

internalField   nonuniform List<scalar> 
458
(
1.1666060303563581
0.90642732098901
0.8550238276661027
0.8260634334173087
0.8196272978430429
0.8375895520822721
0.8839199146302733
0.9627451423949213
1.0730437720287342
1.0675526958918031
1.0396097291323911
1.0281365024793205
1.0354845125699657
1.0720253616236257
1.092649905514498
1.852964579428208
1.7811259802592487
1.7558822813272468
1.7415012640837206
1.738541357313538
1.7277535177708974
1.7242993787229575
1.7317362674278038
1.7451169868393441
1.761032345475548
1.7772205733422601
1.7945764523387653
1.8139085209280217
1.8359372981995765
1.8641617653905067
1.9023077206542895
1.9607209557014886
2.0420636474761316
1.0862141049834841
0.9279992773567061
0.9004432812829424
0.8712386301373028
0.8611438991346128
0.8656436912368225
0.8723989388428967
0.8946657888727687
0.9814224119350319
1.0556936347203498
1.0847711068669006
1.0930415369324045
1.0909050014482833
1.0834877437677337
1.0585242012406428
1.0639348349915014
1.1282933651652285
1.2190997686192675
1.885825833931219
1.774574357074306
1.6728521904384794
1.6390859258892176
1.6453515141083546
1.6658537579803387
1.6865408512205002
1.7071609278153748
1.7279558191520845
1.749005611159269
1.770741350530719
1.7941852475234452
1.8196011679963924
1.8486184225657365
1.8833085492616046
1.9270417244806513
1.9805138908416038
2.0377310555173693
1.0880822730674211
0.9306181435268472
0.954944622081583
0.9467324148024371
0.9378353946941596
0.9057076979516941
0.8333653272113438
0.8065906021603378
0.9024475163990935
1.0248357306726241
1.1161768382997501
1.1624999680322776
1.1705257258168653
1.1545260525012075
1.126551888660074
1.126823241511717
1.1498325104038514
1.1640768253960971
1.8880776000751596
1.6018211242404703
1.5272803026662731
1.544770467145753
1.589639307219646
1.613731622713305
1.6623635341649556
1.7085872157139688
1.7455548876919371
1.7786158778610783
1.8130479668770252
1.8517804372241036
1.8996997459130536
1.9459680618890742
1.977350750938704
1.9999999408699758
2.014395195064608
2.0362293600388046
1.1402518649886322
0.9381255472155607
1.0071016515274125
1.0501784914369205
1.057508734434052
0.9483306856168116
0.7867869275647037
0.7393658604424763
0.8477156183786813
1.0143056122457301
1.1610035769408753
1.2507742021074701
1.2789518137374534
1.261382543598296
1.2231119321045787
1.1929501330707553
1.1619063248338246
1.1260134105596078
1.1246171235510836
1.2041570453171373
1.2874600468227693
1.393813899434356
1.515421939569869
1.6306830399550822
1.7229031509773807
1.767027815125036
1.803400450949633
1.842649898924956
1.8827090265672752
1.9227642178635749
1.9622513389352856
2.00321322546513
2.047631526749494
2.0656490809346133
2.062443222657755
2.047158899862851
2.0431271204234513
1.2184940774272937
0.9619538022115366
1.0565656494587758
1.171870325874634
1.2066192349942793
0.9598164711066797
0.7382256206798382
0.6887628802439025
0.8185963746963406
1.0344109726317043
1.2354279094078136
1.3690280667283417
1.420997658600686
1.4041447929066448
1.351795315372183
1.299641396793433
1.2528520552332991
1.2198209326340945
1.2411127602647556
1.3014676842329795
1.4019962482747421
1.529908787626769
1.6667256640805626
1.7930922759171335
1.8974411821891297
1.9646863887884087
2.017273648363913
2.061688414825319
2.0982578084251453
2.126810630088732
2.148322722017428
2.1627671821748367
2.1688075009885623
2.1529960052411012
2.1223706489014367
2.086941634317232
2.068390656367768
2.234616723443732
2.8489163238759856
2.8007872052974867
1.3072803677361575
1.0085979643664864
1.1271826624992407
1.270869102206163
1.1986452262861405
0.920625973940191
0.6875321371370303
0.6437204408914472
0.8153160139497164
1.0953334546238136
1.355384130308429
1.5315499183666186
1.6114122958845079
1.5940038045229903
1.5268389971678529
1.464899511883449
1.419829305353779
1.4027333910148077
1.4430369780696746
1.5300829932168858
1.6499118740233873
1.7837484744121856
1.9149933361954576
2.0307824082045447
2.123388516356295
2.187307056692544
2.2341467120570146
2.2657487121452693
2.2873633541341163
2.3001316937411542
2.303615439080665
2.296878233764623
2.2770927523529867
2.238982562881283
2.1921165005063115
2.1462837132281636
2.1226854602476815
2.2323418017545604
2.4004246572011203
2.561858910387493
1.4074503076029186
1.1118707307004099
1.3069054115666678
1.3118530406887288
1.1277177970301901
0.8332491810706565
0.5950792587560597
0.5993264612167453
0.8528067765748577
1.2180350392475279
1.5394812070367323
1.7533680508213452
1.787033639171942
1.7645098562963677
1.7252002381345855
1.6918851582232783
1.6652510449025264
1.6770399511463792
1.7444859525538452
1.8486799081578749
1.9685613924959862
2.0916257877540736
2.2055694377160426
2.3000270030736103
2.3569129210606903
2.3971402274483147
2.417940087696057
2.4283336353247162
2.431639757788112
2.4283336353247162
2.4169950056311613
2.3976131363135242
2.3692239229191245
2.3219665039379995
2.269626667005768
2.221742801210326
2.194961323332817
2.272153894424272
2.3747031085886556
2.5178207015380623
1.5436989115720432
1.4556562037575511
1.4298754459398433
1.2994545503011201
1.0151643606613874
0.640450428393523
0.43844446540114634
0.5737439399310823
0.9714698985192602
1.4445511327865324
1.8084161399118444
1.9469176011939993
1.9646073834134516
1.943570344012834
1.920134852087885
1.9124807067394298
1.931136197294353
1.9870710512298764
2.0777931367150018
2.1835879375015668
2.283890759773581
2.3767972568769404
2.4514657606358234
2.5042538046253826
2.5350282935713175
2.5442381891328107
2.5455509160991494
2.5411910000204148
2.531554087450818
2.516937583139738
2.495900470665914
2.469250883208121
2.435441665895558
2.3962924464994915
2.3558495462894986
2.319667746137814
2.305241681901362
2.3892803572927006
2.4592198500704914
2.5479752626092087
1.751974325180637
1.6532851258119763
1.53481582976129
1.236778229354697
0.6064675123853369
0.18571035648625506
0.21179433394927444
0.6607186458117772
1.2810525484510573
1.8372767443779086
2.047044274943627
2.09763856786912
2.1057691774995777
2.1030342265589104
2.110404378069534
2.136831950990763
2.187685286953315
2.2631203485676172
2.353713774278232
2.4413098850668162
2.514205878595971
2.572973490045517
2.6160251224148037
2.642105148124687
2.6525132760131926
2.6515770588403638
2.643875095420014
2.630705371277755
2.612511959980989
2.589789201027227
2.5620283111376856
2.531000009429872
2.499514628636369
2.4727962937094863
2.4623687368604306
2.4845536241114647
2.550653110549375
2.635179463394002
2.665795410671425
2.700295512207261
-2.762669451673064
-2.528453276228096
-1.8803999750862928
-0.8518993930753527
0.23488328484552276
1.2925865950200874
1.9124745409011292
2.1424396464076843
2.2415086744074206
2.2802343975350174
2.299290310631931
2.3181985070724265
2.345989867915984
2.3867848605917574
2.4426150175166166
2.510424101069224
2.582801627612744
2.6488358979386004
2.700916699095047
2.7378453945043653
2.7592179849085054
2.76807441813791
2.7659061261324984
2.7567773468130703
2.742727248905701
2.724278775267088
2.70248410824855
2.677366825503743
2.6514614409522244
2.6261872194115607
2.604873873813318
2.591755928251803
2.594618087365581
2.6214906136103284
2.675712700084296
2.745015824039051
2.8078264023725628
2.982492832662813
-2.292603743676393
-0.6560187344223394
0.5898318247309621
1.2509001903913943
1.7191352275187783
2.078916710661346
2.3011156820639695
2.4059040554266127
2.4588346730814545
2.49285723856106
2.5224019725172324
2.553691515194932
2.5898181730600682
2.6327806083470775
2.6813851382935865
2.73235495036101
2.779871347726766
2.819814297285649
2.847576171102397
2.8642814035059767
2.870472399686192
2.8687814492270016
2.8613157624760843
2.8496581809310975
2.8348708780771843
2.8180329892310003
2.799194564259557
2.7800305655368183
2.7612064154149785
2.7444721890973978
2.731097935392209
2.7244862678787327
2.728054402569909
2.74549691388987
2.77988313583409
2.8278494431057277
2.8961627017729383
2.968748537233892
-0.12022375223017218
-0.13913257271197757
-0.06042039909578741
1.21549750727694
1.9588318850780986
2.3022049450622823
2.464189128607059
2.565040139852439
2.632689342587289
2.679422186902842
2.715516634901838
2.7459515306469946
2.774093455106277
2.8016458225374237
2.8286335608570474
2.856146529526827
2.8819822215820996
2.9055756624072524
2.9247375415893075
2.937838893436268
2.9448888725950235
2.9469933861972755
2.9446914498704593
2.9401777967671507
2.9328933386332414
2.9244895011132552
2.9149676879090487
2.9043414893650183
2.893736137188307
2.882638935887178
2.872208627214603
2.862498435261764
2.854110704652597
2.8481780738914004
2.84576632772879
2.8493754799785522
2.863412690739184
2.8995397251095105
2.973622130827937
3.0
)
;

boundaryField
{
    ".*"
    {
        type            zeroGradient;
    }
}


// ************************************************************************* //
