/*--------------------------------*- C++ -*----------------------------------*=========                 |
  \      /  F ield         | OpenFOAM: The Open Source CFD Toolbox
   \    /   O peration     | Website:  https://openfoam.org
    \  /    A nd           | Version:  6
     \/     M anipulation  |
\*---------------------------------------------------------------------------*/
FoamFile
{
    version     2.0;
    format      ascii;
    class       volScalarField;
    location    "80";
    object      PPD;
}
// * * * * * * * * * * * * * * * * * * * * * * * * * * * * * * * * * * * * * //

dimensions      [0 0 0 0 0 0 0];

internalField   nonuniform List<scalar> 
458
(
33.62824264088273
22.348256776160085
20.427118359743858
19.392874025860067
19.16778978006255
19.800304876593714
21.49374279442199
24.57564962690286
29.29131710440977
29.046000998741206
27.814323989179528
27.31681395657955
27.63488705483563
29.245738835902387
30.17583899176239
69.71058472093146
66.03064982909115
64.70909165952347
63.950618476660544
63.79404058054537
63.22208238688613
63.03853554110631
63.43347357339354
64.14167588469314
64.97975727793917
65.82706088425037
66.72924943619923
67.72597372834949
68.85037102019493
70.271793987011
72.15521669061238
74.9453566921254
78.61491243660645
29.88401888061675
23.186500565100076
22.119056079570285
21.021408182803413
20.65014794493051
20.815119797134372
21.06435095053223
21.89914617337763
25.34192550485129
28.519845497643402
29.81878511882138
30.19364287639239
30.096578294141125
29.760828688425192
28.644974101297137
28.88495479496983
31.817458104485183
36.181821201672356
71.34701112114095
65.68892799063283
60.28409887604189
58.45950506791771
58.79885118782148
59.90684210038658
61.020398765137095
62.12505118990886
63.23282624998991
64.34688731000902
65.4885827699312
66.7089884906579
68.01773521181445
69.49178457592264
71.22281388691697
73.35125006051011
75.86256276577484
78.42633110480314
29.968580442989932
23.289535455545348
24.259637983538994
23.92953031585229
23.574901144951383
22.32061701103133
19.6503393900651
18.717211306509256
22.195660576454983
27.17458192928069
31.254643611039114
33.431966749777914
33.816093160411526
33.052295149066
31.736268909172765
31.748913091358503
32.82974649606332
33.50728138429356
71.45793987111749
56.43581019788354
52.37610381767488
53.328540769315026
55.772807287560084
57.08347090866917
59.71850637220057
62.20124200633134
64.16479878427486
65.8998358567265
67.68179778558101
69.6510239963735
72.02791528868593
74.25212833359927
75.7169918135676
76.75065390885852
77.3969279197046
78.36078033132341
32.37763819218786
23.586416925988303
26.417355028801154
28.27686894593259
28.600051139413253
23.99356805406775
18.04648755240926
16.50822237080392
20.162826430430172
26.72353849168252
33.360566524337315
37.76009562425594
39.18586072147276
38.294553763513264
36.380243091511886
34.89968799273119
33.40363279404494
31.711184684957786
31.646184997866044
35.44678179150981
39.62015693077619
45.17617898755417
51.73087499317557
58.00393141400953
62.96428741242973
65.2941914241519
67.18530705153535
69.19044652541689
71.19320561305005
73.14589659371231
75.01680574601423
76.89564548834974
78.85607406895265
79.6271994932161
79.4910385275514
78.83565526182377
78.66107807423506
36.15190533534323
24.543482639767703
28.558363345306987
33.88064094827284
35.56746393476108
24.456725134568117
16.47241900988149
14.973140648656923
19.131898103723074
27.588292899931304
36.99207420910482
43.862572155259606
46.627484008242725
45.726508481238135
42.955386066574796
40.244860429294974
37.864554455591126
36.2174536715602
37.27585791850139
40.3388082359305
45.61192673688382
52.51918947576032
59.95387139632388
66.65236360508855
71.91749048620491
75.13030945464222
77.52513596036857
79.45891371239998
80.98592252448826
82.13542922838141
82.97598970631554
83.52786684456936
83.75563261336866
83.1556497311791
81.9591943758703
80.51987516276398
79.74327907177081
86.11980850421735
98.21659089086164
97.81161028690326
40.638315587166424
26.48079100299887
31.765664683006406
38.77488110892351
35.177254417285496
22.897884149379706
14.937180652367772
13.699778950223177
19.01798953630403
30.29794082774167
43.14387367478804
52.608537411515655
56.95740475999387
56.01040513262629
52.352082786692606
48.990570212151354
46.56490031575144
45.651231053521016
47.81115884075999
52.528673365983906
59.045637294526706
66.16717472724085
72.77122460285764
78.12220823275754
81.99967873846168
84.4420426175241
86.10369489393159
87.16209872689707
87.8566304947492
88.25565548441482
88.36307364555147
88.15477544294005
87.52959463879819
86.26894900884676
84.61771926628877
82.89727100637754
81.97172082283574
86.0417122769924
91.09963538172576
94.6302835366379
45.90291939955283
31.055796384443553
40.61897300882256
40.87444821216272
31.79061362089358
19.646226591911542
12.423440698788852
12.530796468176561
20.34670711633673
36.129239627644445
53.0404382761252
64.57676757927777
66.33798405214787
65.16222436884023
63.08642440411126
61.30724531054864
59.87432805318289
60.5095866446923
64.10834862443969
69.49488368221984
75.31047085705265
80.71350026605333
85.10299926928435
88.25241780018118
89.92884068752683
91.01460366233489
91.5439490190507
91.80035232590281
91.88078654049838
91.80035232590281
91.52036724764477
91.02688044915524
90.2698523703403
88.91862858481007
87.28846789344827
85.67440382344934
84.72109184716801
87.37040742153577
90.41914299919178
93.78969296094377
53.270169929549944
48.49134789343139
47.10359053355685
40.23525287832116
26.760166935655107
13.610756536896687
9.009850717347945
11.895992384177504
24.93191795247442
47.89268516705153
67.44371244364795
74.29698727288283
75.12663032708554
74.13870768394
73.0193532029189
72.64963949710614
73.54721972219573
76.16308674588558
80.13883241823223
84.30540564186295
87.74666143341318
90.47579898516807
92.35179939364164
93.51273828662718
94.12867035740419
94.30452011292263
94.32927095561416
94.24676564286018
94.06132952873456
93.77192657856008
93.3379102164171
92.7579366678243
91.97261289964783
90.99256692215373
89.89902283332339
88.84998356003601
88.41300410302969
90.80890817053977
92.53076459516066
94.37477595984372
64.50336374719315
59.22806539081373
52.786365096720516
37.05940355107228
12.71306391042144
5.715006932063844
5.930376877046854
14.170002281170014
39.29293246364148
68.91832811440118
78.83070168447239
80.9605717769985
81.29201389401274
81.18086620851207
81.47959235350363
82.52975824605434
84.45590002150891
87.07601220555746
89.8389596943995
92.11294330547945
93.71674082334172
94.82864827464817
95.546469713211
95.94355028812119
96.09434873519155
96.08096035658195
95.96949887366316
95.7733985592215
95.49084053831389
95.11847709744093
94.63334791599358
94.0505386167354
93.41395607920398
92.83706270841354
92.60260372523567
93.09512742888853
94.42473088823253
95.8408049830333
96.28058555602766
96.73280683408473
97.44174440460493
94.0007584332664
71.07906558555895
20.31385566404728
6.14478313251476
39.88265211759119
72.64934087304985
82.74832033143512
86.35480100710737
87.63020468079276
88.22961879731442
88.80596741409
89.61979885570413
90.74294742133733
92.14392278572701
93.63976670612551
94.99953367333968
96.0415609406494
96.74054282855649
97.17564830451548
97.40597100125609
97.49698663698346
97.4749389434474
97.38043887476692
97.22961072469016
97.02138772317369
96.76000006913203
96.43726844129615
96.0793045595502
95.70450045339697
95.36811255896264
95.15157539682387
95.19944656586196
95.63199353815087
96.41518443228595
97.25462961362109
97.875022410058
99.03450311084
88.02141063773853
14.038735794152217
12.291883162777452
37.766426213274045
62.763762632236535
80.18583433776996
88.28605900917239
91.2402852957794
92.52194396327428
93.27339708187402
93.88127654998812
94.4810211759706
95.11896587805336
95.80476509111313
96.4904841468019
97.11398532309178
97.61430335597262
97.97964581944183
98.20619383851046
98.33236861093911
98.37726954770858
98.36510385165042
98.31050763350297
98.22232544142085
98.10518675016442
97.96436472421058
97.79705699255291
97.61585654462782
97.42662801241792
97.24870257094213
97.09972180429419
97.02379519617463
97.06495970864644
97.2598664411471
97.61441837769294
98.0474427520579
98.5532655802033
98.96827154823204
5.299391963692145
5.40106124528576
5.075582085913197
36.004050857142836
74.85704061549136
88.31965737999998
92.64391434921443
94.68761775416337
95.80338932140438
96.46456455872043
96.91833922716926
97.26480793611847
97.55739767152419
97.81942449786973
98.05396022055157
98.27185111245224
98.4581470683445
98.61372742054762
98.73044853470489
98.805521946877
98.84438572308241
98.8557833086345
98.84331174874517
98.81853269382286
98.77762327317483
98.72899078304484
98.67198551070946
98.60591937811688
98.53733626317467
98.46266130721426
98.3896847608404
98.31925314378114
98.25643270796729
98.21086947408891
98.19207565088578
98.22014191516669
98.32598873647957
98.57519910905401
98.99217402636096
100.0
)
;

boundaryField
{
    ".*"
    {
        type            zeroGradient;
    }
}


// ************************************************************************* //
