/*--------------------------------*- C++ -*----------------------------------*\
  =========                 |
  \\      /  F ield         | OpenFOAM: The Open Source CFD Toolbox
   \\    /   O peration     | Website:  https://openfoam.org
    \\  /    A nd           | Version:  6
     \\/     M anipulation  |
\*---------------------------------------------------------------------------*/
FoamFile
{
    version     2.0;
    format      ascii;
    class       volScalarField;
    location    "80";
    object      T;
}
// * * * * * * * * * * * * * * * * * * * * * * * * * * * * * * * * * * * * * //

dimensions      [0 0 0 1 0 0 0];

internalField   nonuniform List<scalar> 
458
(
302.192
301.924
301.896
301.881
301.867
301.853
301.842
301.851
301.933
302.015
302.07
302.108
302.133
302.158
302.189
303.517
303.384
303.28
303.25
303.281
303.317
303.355
303.393
303.431
303.47
303.508
303.547
303.588
303.63
303.676
303.728
303.799
303.924
302.349
301.951
301.905
301.884
301.863
301.835
301.795
301.794
301.908
302.036
302.13
302.188
302.212
302.221
302.222
302.242
302.269
302.318
303.598
303.319
303.165
303.159
303.205
303.245
303.288
303.331
303.375
303.42
303.466
303.515
303.568
303.626
303.688
303.756
303.837
303.961
302.526
302.004
301.947
301.934
301.916
301.864
301.766
301.741
301.891
302.073
302.217
302.303
302.334
302.332
302.317
302.314
302.318
302.337
303.556
303.121
303.028
303.083
303.184
303.217
303.26
303.308
303.36
303.416
303.478
303.55
303.643
303.745
303.825
303.88
303.929
304.017
302.716
302.08
302.015
302.025
302.025
301.93
301.743
301.697
301.872
302.124
302.337
302.463
302.506
302.493
302.458
302.427
302.4
302.382
302.41
302.506
302.65
302.85
303.07
303.266
303.421
303.527
303.612
303.689
303.76
303.827
303.889
303.948
304.003
304.01
304.016
304.025
304.075
302.912
302.179
302.102
302.139
302.172
301.995
301.714
301.655
301.866
302.201
302.496
302.672
302.729
302.707
302.649
302.591
302.544
302.519
302.563
302.68
302.871
303.105
303.347
303.563
303.743
303.872
303.974
304.055
304.118
304.164
304.195
304.211
304.211
304.182
304.147
304.123
304.136
304.444
305.631
305.561
303.101
302.306
302.218
302.27
302.285
302.002
301.667
301.604
301.881
302.324
302.714
302.941
303.01
302.977
302.899
302.827
302.781
302.783
302.878
303.056
303.286
303.534
303.77
303.971
304.129
304.243
304.329
304.386
304.423
304.443
304.446
304.432
304.398
304.34
304.278
304.23
304.221
304.424
304.74
305.037
303.296
302.496
302.419
302.489
302.358
301.928
301.538
301.534
301.941
302.527
303.017
303.28
303.345
303.298
303.216
303.157
303.145
303.204
303.359
303.577
303.815
304.049
304.256
304.42
304.54
304.625
304.669
304.691
304.698
304.691
304.667
304.626
304.566
304.487
304.409
304.35
304.33
304.479
304.696
304.968
303.543
302.957
302.85
302.783
302.32
301.656
301.272
301.463
302.106
302.876
303.438
303.679
303.716
303.672
303.623
303.607
303.646
303.763
303.953
304.175
304.386
304.582
304.74
304.852
304.925
304.956
304.964
304.957
304.937
304.905
304.858
304.798
304.723
304.64
304.562
304.503
304.495
304.66
304.865
305.127
303.907
303.611
303.392
302.857
301.693
300.86
300.809
301.517
302.543
303.488
303.948
304.093
304.123
304.116
304.122
304.162
304.25
304.391
304.573
304.76
304.921
305.053
305.15
305.209
305.233
305.232
305.216
305.188
305.149
305.1
305.04
304.973
304.906
304.852
304.837
304.894
305.044
305.234
305.316
305.414
295.006
295.493
296.726
298.552
300.459
302.339
303.687
304.233
304.454
304.537
304.575
304.61
304.661
304.737
304.843
304.974
305.116
305.247
305.351
305.425
305.468
305.486
305.482
305.464
305.436
305.399
305.355
305.304
305.251
305.199
305.155
305.128
305.134
305.189
305.299
305.437
305.554
305.903
295.885
298.256
300.854
302.355
303.42
304.172
304.614
304.817
304.918
304.982
305.037
305.095
305.162
305.242
305.333
305.429
305.519
305.595
305.648
305.68
305.692
305.689
305.675
305.653
305.625
305.593
305.557
305.52
305.483
305.449
305.42
305.402
305.401
305.424
305.48
305.569
305.722
305.876
300.478
300.444
300.44
302.738
304.048
304.671
304.966
305.149
305.271
305.355
305.42
305.475
305.526
305.576
305.625
305.675
305.722
305.765
305.8
305.824
305.837
305.841
305.837
305.829
305.816
305.801
305.784
305.765
305.746
305.726
305.707
305.689
305.673
305.661
305.655
305.66
305.685
305.752
305.89
305.963
)
;

boundaryField
{
    floor
    {
        type            wallHeatTransfer;
        Tinf            uniform 305.2;
        alphaWall       uniform 0.24;
        value           nonuniform List<scalar> 
36
(
302.446
303.731
303.588
303.472
303.431
303.456
303.497
303.542
303.586
303.629
303.672
303.714
303.755
303.797
303.84
303.885
303.937
304.006
304.123
304.123
304.149
304.196
304.243
304.561
305.563
305.509
302.446
302.472
302.517
302.594
303.731
302.594
303.809
302.588
303.771
302.642
)
;
    }
    ceiling
    {
        type            wallHeatTransfer;
        Tinf            uniform 303.2;
        alphaWall       uniform 0.24;
        value           nonuniform List<scalar> 
43
(
300.625
300.586
300.578
302.759
304.005
304.586
304.856
305.019
305.125
305.198
305.255
305.306
305.353
305.399
305.445
305.49
305.532
305.568
305.594
305.61
305.615
305.612
305.602
305.588
305.57
305.549
305.527
305.503
305.478
305.453
305.429
305.407
305.388
305.374
305.368
305.374
305.402
305.469
305.61
305.674
303.875
303.595
296.291
)
;
    }
    sWall
    {
        type            wallHeatTransfer;
        Tinf            uniform 315.2;
        alphaWall       uniform 0.36;
        value           uniform 301.638;
    }
    nWall
    {
        type            wallHeatTransfer;
        Tinf            uniform 307.2;
        alphaWall       uniform 0.36;
        value           nonuniform List<scalar> 6(305.899 305.435 305.386 306.103 306.064 306.148);
    }
    sideWalls
    {
        type            empty;
    }
    glass1
    {
        type            wallHeatTransfer;
        Tinf            uniform 315.2;
        alphaWall       uniform 4.3;
        value           nonuniform List<scalar> 9(310.299 309.815 309.507 309.272 309.071 308.885 308.781 308.878 309.141);
    }
    glass2
    {
        type            wallHeatTransfer;
        Tinf            uniform 307.2;
        alphaWall       uniform 4.3;
        value           nonuniform List<scalar> 2(306.566 306.648);
    }
    sun
    {
        type            wallHeatTransfer;
        Tinf            uniform 305.2;
        alphaWall       uniform 0.24;
        value           nonuniform List<scalar> 
14
(
302.442
302.172
302.136
302.109
302.085
302.062
302.044
302.047
302.126
302.211
302.273
302.32
302.358
302.397
)
;
    }
    Table_master
    {
        type            zeroGradient;
    }
    Table_slave
    {
        type            zeroGradient;
    }
    inlet
    {
        type            fixedValue;
        value           uniform 293.15;
    }
    outlet
    {
        type            zeroGradient;
    }
}


// ************************************************************************* //
