/*--------------------------------*- C++ -*----------------------------------*\
  =========                 |
  \\      /  F ield         | OpenFOAM: The Open Source CFD Toolbox
   \\    /   O peration     | Website:  https://openfoam.org
    \\  /    A nd           | Version:  6
     \\/     M anipulation  |
\*---------------------------------------------------------------------------*/
FoamFile
{
    version     2.0;
    format      ascii;
    class       volScalarField;
    location    "2030";
    object      k;
}
// * * * * * * * * * * * * * * * * * * * * * * * * * * * * * * * * * * * * * //

dimensions      [0 2 -2 0 0 0 0];

internalField   nonuniform List<scalar> 
458
(
0.00226773
0.002686
0.00280875
0.00308393
0.00334875
0.00360954
0.00388019
0.00416498
0.00440528
0.00455969
0.00457727
0.00441257
0.00402194
0.00325473
0.00187334
0.000457598
0.000628863
0.000808327
0.00087881
0.000851515
0.00074569
0.000636787
0.000546621
0.000474078
0.000415257
0.000367081
0.000327362
0.000294041
0.000265249
0.000239309
0.000214605
0.000200564
0.00016941
0.00412302
0.00755235
0.00415032
0.00437425
0.00471606
0.00513528
0.00563229
0.0061965
0.0068004
0.00731275
0.00758809
0.00753079
0.00712358
0.00635468
0.00513856
0.003264
0.00224657
0.00149551
0.000450271
0.000973097
0.00130321
0.0014583
0.00147264
0.00125931
0.0010243
0.000833991
0.000688731
0.000577318
0.000490661
0.00042151
0.000364694
0.000317432
0.000283504
0.000264379
0.000493894
0.000292762
0.0060951
0.0136497
0.00491154
0.00472508
0.00494163
0.00528602
0.00575076
0.00634072
0.00699367
0.00755024
0.00789217
0.00794945
0.00769309
0.00706044
0.00603698
0.00488819
0.00391844
0.00208614
0.00106825
0.00139967
0.00160351
0.0017303
0.00172271
0.00134707
0.0010325
0.000802592
0.000637574
0.000518239
0.000430594
0.000365327
0.000316469
0.00028089
0.000262136
0.000265439
0.000780353
0.000408877
0.00835894
0.0222367
0.00592706
0.00470713
0.00474665
0.00501662
0.00547374
0.006168
0.0068924
0.00746287
0.00783356
0.00795332
0.00774807
0.00714556
0.00628682
0.00543542
0.00463211
0.00350013
0.00276877
0.00250689
0.00237406
0.0023381
0.00228947
0.00215176
0.00170938
0.00143633
0.00126394
0.00114377
0.00104683
0.000954752
0.000871223
0.000787109
0.000694196
0.000530188
0.000422747
0.00113249
0.000542383
0.0110412
0.0339575
0.00842363
0.00474993
0.00448307
0.00470826
0.00529964
0.00635508
0.00718496
0.00773942
0.00809491
0.00819701
0.00790019
0.00718235
0.00621587
0.00530903
0.00457952
0.00397829
0.00379453
0.00347937
0.0032524
0.00307052
0.00285907
0.00259014
0.0023026
0.00210655
0.00198653
0.00189184
0.0017898
0.00166104
0.00149185
0.00129911
0.00109385
0.000865672
0.000664752
0.000922192
0.00106383
0.000969441
0.00108637
0.00128348
0.0143256
0.0466886
0.0149489
0.00592298
0.00474247
0.00478334
0.0057074
0.00726677
0.0080318
0.0084742
0.00873847
0.00874745
0.00832001
0.00737855
0.00612433
0.00496588
0.00418338
0.0038414
0.00381378
0.00382284
0.00373165
0.00350852
0.00318898
0.00283463
0.00254765
0.00239523
0.00232163
0.00226304
0.00218494
0.00206507
0.00187829
0.00164881
0.00140028
0.00114674
0.000935574
0.000900682
0.00103002
0.00105444
0.00165137
0.00138073
0.0179762
0.0550469
0.0270755
0.0123591
0.00830773
0.00741186
0.0085046
0.00920949
0.00948574
0.00964543
0.00972949
0.00958331
0.00894688
0.00770904
0.00610986
0.00469852
0.00388657
0.0037356
0.00389795
0.00398237
0.00385327
0.00355009
0.00317068
0.00281165
0.00256726
0.00246843
0.00245159
0.00245691
0.00245484
0.00242443
0.0023359
0.00214715
0.00191056
0.00165889
0.00145714
0.00136453
0.00145091
0.00168146
0.00223389
0.0019488
0.018941
0.0568474
0.0383018
0.0271706
0.0197411
0.0158799
0.0137248
0.0122882
0.011536
0.0112119
0.0110093
0.0106095
0.00964617
0.00799453
0.00597395
0.00439212
0.00367698
0.00365498
0.00377947
0.00374982
0.00351652
0.00316981
0.00281985
0.00255035
0.00240794
0.00238367
0.0024313
0.00251746
0.00263026
0.00276717
0.00292548
0.0030669
0.00310916
0.00313887
0.00329201
0.00386905
0.00511961
0.00681593
0.0128318
0.00467701
0.018204
0.0264667
0.0243623
0.0217106
0.0188863
0.0164643
0.0146538
0.0135902
0.0130862
0.0127671
0.0123562
0.0115954
0.0100707
0.00776881
0.00515913
0.0038573
0.00340228
0.00330927
0.00325272
0.00309106
0.00282321
0.00252755
0.00228242
0.00213419
0.00208889
0.00212324
0.00220959
0.00233308
0.00249006
0.00268169
0.00290934
0.00317117
0.00348968
0.00390094
0.00444792
0.00509769
0.0056969
0.00606904
0.00624823
0.00408117
0.00718526
0.0110953
0.0135431
0.0147731
0.0154367
0.0157071
0.0153764
0.0144507
0.0132115
0.011585
0.00881012
0.00585901
0.00403629
0.00322545
0.00288131
0.00270022
0.00252793
0.00231818
0.00209088
0.00188811
0.00175207
0.00169316
0.00169792
0.00174774
0.00182983
0.0019393
0.00207753
0.00225115
0.00247287
0.00276577
0.00313121
0.00356696
0.00405089
0.00449044
0.00471262
0.0045728
0.00410673
0.00264226
0.00805096
0.0194683
0.021609
0.0214989
0.0207264
0.0184758
0.015337
0.0120143
0.00883246
0.00623562
0.00435116
0.00326404
0.00271645
0.00241273
0.00221105
0.00203303
0.00184826
0.00166525
0.00150954
0.00139913
0.00133839
0.00132645
0.0013552
0.00141896
0.00151612
0.0016481
0.00181815
0.0020306
0.00229602
0.00262442
0.00302443
0.00349684
0.00401536
0.00451222
0.00481688
0.00510153
0.00428731
0.00271137
0.00890522
0.00935068
0.0097646
0.0120868
0.0107996
0.00848159
0.0060364
0.00437007
0.00348192
0.00273145
0.00214584
0.00173643
0.00142366
0.00120721
0.00106726
0.000970475
0.000895952
0.000834205
0.000784884
0.000752455
0.000740537
0.000749513
0.000776365
0.000816695
0.000869115
0.000933341
0.00101007
0.00110096
0.00120904
0.00133977
0.00149668
0.00168166
0.00189905
0.00215381
0.00245051
0.00283134
0.00300669
0.00288482
0.00249584
0.00213494
)
;

boundaryField
{
    floor
    {
        type            kqRWallFunction;
        value           nonuniform List<scalar> 
36
(
0.00187334
0.000457598
0.000628863
0.000808327
0.00087881
0.000851515
0.00074569
0.000636787
0.000546621
0.000474078
0.000415257
0.000367081
0.000327362
0.000294041
0.000265249
0.000239309
0.000214605
0.000200564
0.00016941
0.00016941
0.000292762
0.000408877
0.000542383
0.000969441
0.00108637
0.00128348
0.00187334
0.003264
0.00224657
0.00149551
0.000457598
0.00149551
0.000450271
0.00208614
0.00106825
0.00276877
)
;
    }
    ceiling
    {
        type            kqRWallFunction;
        value           nonuniform List<scalar> 
43
(
0.00890522
0.00935068
0.0097646
0.0120868
0.0107996
0.00848159
0.0060364
0.00437007
0.00348192
0.00273145
0.00214584
0.00173643
0.00142366
0.00120721
0.00106726
0.000970475
0.000895952
0.000834205
0.000784884
0.000752455
0.000740537
0.000749513
0.000776365
0.000816695
0.000869115
0.000933341
0.00101007
0.00110096
0.00120904
0.00133977
0.00149668
0.00168166
0.00189905
0.00215381
0.00245051
0.00283134
0.00300669
0.00288482
0.00249584
0.00213494
0.018204
0.0264667
0.00805096
)
;
    }
    sWall
    {
        type            kqRWallFunction;
        value           uniform 0.00890522;
    }
    nWall
    {
        type            kqRWallFunction;
        value           nonuniform List<scalar> 6(0.00128348 0.00138073 0.0019488 0.00264226 0.00271137 0.00213494);
    }
    sideWalls
    {
        type            empty;
    }
    glass1
    {
        type            kqRWallFunction;
        value           nonuniform List<scalar> 9(0.00226773 0.00412302 0.0060951 0.00835894 0.0110412 0.0143256 0.0179762 0.018941 0.018204);
    }
    glass2
    {
        type            kqRWallFunction;
        value           nonuniform List<scalar> 2(0.00467701 0.00408117);
    }
    sun
    {
        type            kqRWallFunction;
        value           nonuniform List<scalar> 
14
(
0.00226773
0.002686
0.00280875
0.00308393
0.00334875
0.00360954
0.00388019
0.00416498
0.00440528
0.00455969
0.00457727
0.00441257
0.00402194
0.00325473
)
;
    }
    Table_master
    {
        type            kqRWallFunction;
        value           nonuniform List<scalar> 9(0.00134707 0.0010325 0.000802592 0.000637574 0.000518239 0.000430594 0.000365327 0.000316469 0.00028089);
    }
    Table_slave
    {
        type            kqRWallFunction;
        value           nonuniform List<scalar> 9(0.00170938 0.00143633 0.00126394 0.00114377 0.00104683 0.000954752 0.000871223 0.000787109 0.000694196);
    }
    inlet
    {
        type            turbulentIntensityKineticEnergyInlet;
        intensity       0.05;
        value           uniform 0.000937501;
    }
    outlet
    {
        type            zeroGradient;
    }
}


// ************************************************************************* //
