/*--------------------------------*- C++ -*----------------------------------*\
  =========                 |
  \\      /  F ield         | OpenFOAM: The Open Source CFD Toolbox
   \\    /   O peration     | Website:  https://openfoam.org
    \\  /    A nd           | Version:  6
     \\/     M anipulation  |
\*---------------------------------------------------------------------------*/
FoamFile
{
    version     2.0;
    format      ascii;
    class       volVectorField;
    location    "2030";
    object      U;
}
// * * * * * * * * * * * * * * * * * * * * * * * * * * * * * * * * * * * * * //

dimensions      [0 1 -1 0 0 0 0];

internalField   nonuniform List<vector> 
458
(
(0.0348286 0.0885211 0)
(-0.172078 0.0265827 0)
(-0.199344 0.0191127 0)
(-0.233218 0.0130811 0)
(-0.25839 0.00641421 0)
(-0.273595 -0.000803911 0)
(-0.276726 -0.00877673 0)
(-0.26548 -0.0177761 0)
(-0.239425 -0.0274244 0)
(-0.199717 -0.0361089 0)
(-0.150455 -0.0420488 0)
(-0.09784 -0.0436493 0)
(-0.0487401 -0.0390808 0)
(-0.00628276 -0.0236902 0)
(-0.0102714 0.00976848 0)
(-0.0102356 0.0105108 0)
(-0.0372561 -0.0174906 0)
(-0.0145056 -0.0291082 0)
(0.01368 -0.0251838 0)
(0.0334488 -0.017889 0)
(0.0480653 -0.00955484 0)
(0.0568243 -0.00517657 0)
(0.0607026 -0.00363278 0)
(0.062138 -0.00308313 0)
(0.0627873 -0.00276013 0)
(0.063097 -0.00250961 0)
(0.063036 -0.00224173 0)
(0.0624381 -0.00179762 0)
(0.0608463 -0.000838834 0)
(0.0572439 0.00107473 0)
(0.0505234 0.00317132 0)
(0.0451166 0.00508761 0)
(-0.0141444 0.0219492 0)
(0.214278 0.181888 0)
(-0.162148 0.0709903 0)
(-0.162939 0.0577607 0)
(-0.198653 0.0457425 0)
(-0.224129 0.0319883 0)
(-0.240105 0.0161767 0)
(-0.244609 -0.00240758 0)
(-0.235116 -0.0239629 0)
(-0.21187 -0.046165 0)
(-0.17649 -0.0649217 0)
(-0.133363 -0.0764226 0)
(-0.0881361 -0.0781967 0)
(-0.0462696 -0.0687305 0)
(-0.0100383 -0.046023 0)
(0.0194007 -0.0133886 0)
(0.0442335 0.00784499 0)
(0.0548422 0.0347563 0)
(-0.0118137 0.0706822 0)
(0.0670415 0.0439788 0)
(0.0103002 -0.0218334 0)
(0.0265242 -0.0378998 0)
(0.0407529 -0.0356453 0)
(0.0531419 -0.0273404 0)
(0.0595645 -0.0120926 0)
(0.0611846 -0.00275308 0)
(0.0612342 0.000745852 0)
(0.0613988 0.00202319 0)
(0.061724 0.00272221 0)
(0.0619491 0.00322205 0)
(0.0620067 0.00367527 0)
(0.0619026 0.00440764 0)
(0.0611914 0.00620588 0)
(0.0577944 0.011225 0)
(0.0491027 0.015535 0)
(0.0476949 0.0187073 0)
(-0.0584243 0.0475521 0)
(0.37954 0.272953 0)
(-0.180118 0.11373 0)
(-0.12351 0.0941069 0)
(-0.159195 0.0724332 0)
(-0.182597 0.049503 0)
(-0.198407 0.0236445 0)
(-0.204061 -0.00653106 0)
(-0.195374 -0.0409735 0)
(-0.173594 -0.0757732 0)
(-0.14143 -0.103641 0)
(-0.103848 -0.118947 0)
(-0.0659035 -0.119153 0)
(-0.0318316 -0.104119 0)
(-0.00228686 -0.0744031 0)
(0.022021 -0.0400799 0)
(0.0375876 -0.0152249 0)
(0.0431715 0.0131582 0)
(-0.0236695 0.0623143 0)
(0.122493 -0.00754497 0)
(0.0725122 -0.0320985 0)
(0.0643147 -0.0419325 0)
(0.0672639 -0.0417578 0)
(0.0718742 -0.0380432 0)
(0.0734934 -0.028227 0)
(0.0643708 -0.0183284 0)
(0.0574166 -0.0130266 0)
(0.054818 -0.0100784 0)
(0.0541267 -0.0081857 0)
(0.0538928 -0.00689726 0)
(0.0539633 -0.00590235 0)
(0.0547629 -0.0047532 0)
(0.0572143 -0.00139821 0)
(0.0561088 0.0149954 0)
(0.0445921 0.0258724 0)
(0.0541336 0.0332517 0)
(-0.0993714 0.0727978 0)
(0.530035 0.34665 0)
(-0.216672 0.151751 0)
(-0.0801991 0.125833 0)
(-0.115538 0.0962952 0)
(-0.133417 0.0672241 0)
(-0.146929 0.0337653 0)
(-0.152516 -0.00710636 0)
(-0.142623 -0.0550459 0)
(-0.121292 -0.102299 0)
(-0.0929842 -0.13783 0)
(-0.0625384 -0.155417 0)
(-0.0335795 -0.153423 0)
(-0.00880573 -0.133438 0)
(0.012857 -0.097927 0)
(0.0304234 -0.0589786 0)
(0.0443473 -0.0229033 0)
(0.0599465 0.0131424 0)
(0.058815 0.0534328 0)
(0.100329 0.0614996 0)
(0.0988143 -0.00244884 0)
(0.0851491 -0.0293944 0)
(0.0784656 -0.0376932 0)
(0.0736148 -0.038395 0)
(0.0670201 -0.0341073 0)
(0.0666014 -0.0208383 0)
(0.0772772 -0.01383 0)
(0.0862399 -0.010107 0)
(0.0916387 -0.00782398 0)
(0.0948778 -0.00591618 0)
(0.0962834 -0.00385509 0)
(0.0945146 -0.00118963 0)
(0.0882518 0.00248074 0)
(0.0757087 0.0077433 0)
(0.0597959 0.0250998 0)
(0.0440605 0.0405868 0)
(0.0629762 0.0533497 0)
(-0.131379 0.0942835 0)
(0.662688 0.403807 0)
(-0.262356 0.182674 0)
(-0.0350349 0.145254 0)
(-0.0687511 0.111318 0)
(-0.0779482 0.0792334 0)
(-0.0862958 0.0412522 0)
(-0.0890518 -0.00798191 0)
(-0.0740339 -0.0688043 0)
(-0.0534882 -0.12589 0)
(-0.0315852 -0.165062 0)
(-0.0112811 -0.181833 0)
(0.00615568 -0.175986 0)
(0.0193198 -0.151482 0)
(0.0303372 -0.114541 0)
(0.0401862 -0.0729631 0)
(0.04943 -0.0337294 0)
(0.0619284 0.000666831 0)
(0.0760323 0.0197073 0)
(0.0903222 -0.000577033 0)
(0.0896799 -0.0213807 0)
(0.0826134 -0.0300397 0)
(0.0738067 -0.0325529 0)
(0.0655624 -0.0316309 0)
(0.0586188 -0.0266325 0)
(0.056838 -0.0155118 0)
(0.0603919 -0.00902631 0)
(0.0647335 -0.00637173 0)
(0.0684567 -0.00482914 0)
(0.0716993 -0.00274879 0)
(0.0742059 0.000782091 0)
(0.0750548 0.00596923 0)
(0.0731602 0.0129873 0)
(0.0682505 0.0224382 0)
(0.0612035 0.0371785 0)
(0.0500522 0.0536317 0)
(0.0748565 0.072752 0)
(-0.0068458 0.101387 0)
(0.0557857 0.150675 0)
(-0.0835226 0.0748375 0)
(-0.277797 0.000485556 0)
(0.761895 0.451322 0)
(-0.308553 0.203336 0)
(0.00242819 0.143883 0)
(-0.0205871 0.116258 0)
(-0.0197941 0.0857226 0)
(-0.0215041 0.0472973 0)
(-0.0143201 -0.00693166 0)
(0.0103073 -0.0859131 0)
(0.0269181 -0.146182 0)
(0.0388209 -0.182413 0)
(0.0460422 -0.194546 0)
(0.0488915 -0.185047 0)
(0.0486271 -0.15812 0)
(0.0472219 -0.11992 0)
(0.0460471 -0.0779431 0)
(0.0464628 -0.0397132 0)
(0.0508142 -0.00999882 0)
(0.0599631 0.00481505 0)
(0.0662397 -0.00106034 0)
(0.0649862 -0.0110212 0)
(0.0586007 -0.0188122 0)
(0.0504299 -0.022915 0)
(0.0427923 -0.023663 0)
(0.0368169 -0.0211357 0)
(0.0342662 -0.0157711 0)
(0.0354161 -0.0122945 0)
(0.0383704 -0.0108629 0)
(0.0420267 -0.00977443 0)
(0.0460867 -0.00763789 0)
(0.0502691 -0.00338321 0)
(0.0544793 0.00368526 0)
(0.0569959 0.0131877 0)
(0.0581617 0.0249447 0)
(0.0592865 0.0395788 0)
(0.058363 0.0560014 0)
(0.079706 0.0766981 0)
(0.0654459 0.0889892 0)
(0.0997211 0.0967341 0)
(0.117478 0.0571991 0)
(-0.136898 -0.0299305 0)
(0.815617 0.494187 0)
(-0.334124 0.187369 0)
(0.0322381 0.0937994 0)
(0.0390588 0.101055 0)
(0.0459256 0.0830021 0)
(0.0516168 0.0393743 0)
(0.079088 -0.0311641 0)
(0.103101 -0.103695 0)
(0.113279 -0.157007 0)
(0.112857 -0.186323 0)
(0.104579 -0.192426 0)
(0.0907897 -0.178772 0)
(0.0740953 -0.149769 0)
(0.0575017 -0.111564 0)
(0.0429706 -0.0709124 0)
(0.0326135 -0.0357006 0)
(0.0280963 -0.0107642 0)
(0.0294963 0.000981871 0)
(0.0311316 -0.000288993 0)
(0.02963 -0.00657608 0)
(0.0249782 -0.012636 0)
(0.0188588 -0.0163735 0)
(0.0128336 -0.0177453 0)
(0.0080277 -0.0171063 0)
(0.00566715 -0.0151968 0)
(0.00600977 -0.0141021 0)
(0.00804945 -0.0139682 0)
(0.0110481 -0.013742 0)
(0.0148435 -0.0123607 0)
(0.0195214 -0.00873827 0)
(0.0256905 -0.00163341 0)
(0.0332993 0.00887065 0)
(0.0400652 0.0208912 0)
(0.0478739 0.0341606 0)
(0.0558733 0.0479606 0)
(0.0754491 0.0644585 0)
(0.0882309 0.0697735 0)
(0.11967 0.0632106 0)
(0.163391 0.0513052 0)
(-0.0203492 0.095487 0)
(0.921873 0.497287 0)
(-0.0766831 0.167418 0)
(0.110605 0.0261624 0)
(0.163732 0.0227968 0)
(0.161392 0.0155529 0)
(0.162856 -0.0293545 0)
(0.196477 -0.0804023 0)
(0.211262 -0.125535 0)
(0.205353 -0.15827 0)
(0.185087 -0.173977 0)
(0.155585 -0.171671 0)
(0.121089 -0.153972 0)
(0.085295 -0.124275 0)
(0.0523685 -0.0880748 0)
(0.024461 -0.0510597 0)
(0.00511307 -0.0219321 0)
(-0.00463416 -0.00443535 0)
(-0.00656154 0.00174968 0)
(-0.00644322 0.000654911 0)
(-0.00764446 -0.00367018 0)
(-0.0109448 -0.00801875 0)
(-0.0154434 -0.0110816 0)
(-0.0200776 -0.0128508 0)
(-0.0239416 -0.0136865 0)
(-0.0263234 -0.0141371 0)
(-0.0272149 -0.0148879 0)
(-0.0271786 -0.0158713 0)
(-0.0265967 -0.0165844 0)
(-0.025469 -0.0164981 0)
(-0.0234894 -0.0150348 0)
(-0.0198636 -0.0114635 0)
(-0.0117097 -0.00490709 0)
(-9.67341e-05 0.0044608 0)
(0.0110837 0.0137613 0)
(0.0226871 0.0208662 0)
(0.0398978 0.0277376 0)
(0.055429 0.0224398 0)
(0.0795694 0.00564813 0)
(0.146408 0.0479771 0)
(-0.428338 0.212665 0)
(1.06591 0.444167 0)
(0.518239 0.298302 0)
(0.529533 0.249861 0)
(0.518387 0.18291 0)
(0.46983 0.122444 0)
(0.433146 0.0601182 0)
(0.392038 -0.00741773 0)
(0.342836 -0.0669742 0)
(0.28908 -0.107858 0)
(0.232745 -0.12661 0)
(0.175367 -0.125099 0)
(0.118912 -0.108913 0)
(0.0654663 -0.0822868 0)
(0.0202451 -0.0512617 0)
(-0.0160963 -0.0208422 0)
(-0.0329456 -0.00607425 0)
(-0.0401234 0.000435185 0)
(-0.0416811 0.00219931 0)
(-0.0420603 0.00100063 0)
(-0.043203 -0.00164613 0)
(-0.0458319 -0.00452272 0)
(-0.0494815 -0.00704928 0)
(-0.0535068 -0.00913818 0)
(-0.0573717 -0.0108662 0)
(-0.0608193 -0.0123676 0)
(-0.0640126 -0.0137486 0)
(-0.0673552 -0.0148465 0)
(-0.0712228 -0.0153024 0)
(-0.075969 -0.0146314 0)
(-0.0820672 -0.0121806 0)
(-0.0902091 -0.00711299 0)
(-0.101119 0.00143011 0)
(-0.112752 0.0133233 0)
(-0.127984 0.0284147 0)
(-0.152908 0.0467848 0)
(-0.190232 0.0673935 0)
(-0.241634 0.0862249 0)
(-0.297563 0.0999172 0)
(-0.371647 0.10691 0)
(-0.650669 0.106302 0)
(0.233923 0.0528377 0)
(0.30589 0.115971 0)
(0.321217 0.0913772 0)
(0.299642 0.0395871 0)
(0.275045 -0.0105956 0)
(0.244388 -0.0469351 0)
(0.203101 -0.0684111 0)
(0.154009 -0.075417 0)
(0.100447 -0.0687023 0)
(0.0461767 -0.0529205 0)
(-0.0086166 -0.0295166 0)
(-0.0451251 -0.0114918 0)
(-0.0635861 -0.00313218 0)
(-0.0709174 -0.000758277 0)
(-0.0731534 -0.000290045 0)
(-0.0734717 -0.000989191 0)
(-0.0737743 -0.00258958 0)
(-0.0749133 -0.00468368 0)
(-0.07713 -0.00677083 0)
(-0.0803864 -0.00855001 0)
(-0.0841832 -0.0100211 0)
(-0.0882908 -0.0111424 0)
(-0.0927207 -0.0119167 0)
(-0.0976263 -0.0123106 0)
(-0.103158 -0.0121336 0)
(-0.109349 -0.011041 0)
(-0.116067 -0.0085634 0)
(-0.122968 -0.00415689 0)
(-0.12943 0.00273961 0)
(-0.134402 0.0123376 0)
(-0.13837 0.0256182 0)
(-0.141806 0.0431798 0)
(-0.146017 0.0642228 0)
(-0.151772 0.0850519 0)
(-0.155358 0.095548 0)
(-0.141302 0.0734016 0)
(-0.110245 -0.0250086 0)
(-0.286611 -0.213742 0)
(0.120027 0.324339 0)
(0.00839322 0.203598 0)
(0.0392699 0.118456 0)
(0.058486 0.0604412 0)
(0.0631361 0.0216277 0)
(0.0601229 -0.00478534 0)
(0.0402107 -0.019915 0)
(0.00543674 -0.0189615 0)
(-0.0365822 -0.0017265 0)
(-0.0701042 0.0128756 0)
(-0.0912195 0.0208824 0)
(-0.100234 0.0232702 0)
(-0.102455 0.0233975 0)
(-0.102399 0.0234454 0)
(-0.101528 0.0241554 0)
(-0.100498 0.0252818 0)
(-0.099778 0.0264232 0)
(-0.0996528 0.0271735 0)
(-0.100179 0.0271081 0)
(-0.101322 0.0259031 0)
(-0.103118 0.0238708 0)
(-0.105495 0.0216274 0)
(-0.108387 0.0194485 0)
(-0.111706 0.01748 0)
(-0.115314 0.0158316 0)
(-0.118998 0.0146128 0)
(-0.122447 0.0139602 0)
(-0.125177 0.014031 0)
(-0.126373 0.0155221 0)
(-0.124866 0.0198905 0)
(-0.119076 0.0282969 0)
(-0.107619 0.0417412 0)
(-0.0903516 0.0602417 0)
(-0.0683168 0.0804259 0)
(-0.0434457 0.0948382 0)
(-0.00758325 0.0857777 0)
(0.14694 0.0093044 0)
(-0.209928 -0.129685 0)
(-0.422123 -0.516032 0)
(-0.637321 -0.143274 0)
(-0.449398 0.177766 0)
(-0.35793 0.056087 0)
(-0.213889 -0.00553273 0)
(-0.145595 -0.0477865 0)
(-0.117147 -0.070542 0)
(-0.112965 -0.0713681 0)
(-0.122327 -0.0626937 0)
(-0.134848 -0.0549806 0)
(-0.140337 -0.0505083 0)
(-0.138579 -0.0490673 0)
(-0.134116 -0.0499495 0)
(-0.12893 -0.0527699 0)
(-0.124463 -0.0563007 0)
(-0.121018 -0.0599519 0)
(-0.118222 -0.0635996 0)
(-0.115814 -0.0672949 0)
(-0.113749 -0.070894 0)
(-0.112102 -0.0739075 0)
(-0.111005 -0.0756849 0)
(-0.11062 -0.0757904 0)
(-0.111051 -0.0743584 0)
(-0.112259 -0.0719878 0)
(-0.114071 -0.068916 0)
(-0.116262 -0.0652758 0)
(-0.11855 -0.061088 0)
(-0.120568 -0.0562786 0)
(-0.121833 -0.0506324 0)
(-0.121712 -0.0438021 0)
(-0.119188 -0.0358147 0)
(-0.112355 -0.0266901 0)
(-0.0984069 -0.0158834 0)
(-0.0748451 -0.00248718 0)
(-0.0415511 0.0143633 0)
(0.00931612 0.0362844 0)
(0.0618661 0.0423472 0)
(0.109599 0.0240444 0)
(0.172058 -0.0159433 0)
(-0.19629 -0.0826856 0)
)
;

boundaryField
{
    floor
    {
        type            noSlip;
    }
    ceiling
    {
        type            noSlip;
    }
    sWall
    {
        type            noSlip;
    }
    nWall
    {
        type            noSlip;
    }
    sideWalls
    {
        type            empty;
    }
    glass1
    {
        type            noSlip;
    }
    glass2
    {
        type            noSlip;
    }
    sun
    {
        type            noSlip;
    }
    Table_master
    {
        type            noSlip;
    }
    Table_slave
    {
        type            noSlip;
    }
    inlet
    {
        type            fixedValue;
        value           uniform (0.46194 -0.191342 0);
    }
    outlet
    {
        type            zeroGradient;
    }
}


// ************************************************************************* //
