/*--------------------------------*- C++ -*----------------------------------*\
  =========                 |
  \\      /  F ield         | OpenFOAM: The Open Source CFD Toolbox
   \\    /   O peration     | Website:  https://openfoam.org
    \\  /    A nd           | Version:  6
     \\/     M anipulation  |
\*---------------------------------------------------------------------------*/
FoamFile
{
    version     2.0;
    format      ascii;
    class       volScalarField;
    location    "32799.9999976951149";
    object      epsilon;
}
// * * * * * * * * * * * * * * * * * * * * * * * * * * * * * * * * * * * * * //

dimensions      [0 2 -3 0 0 0 0];

internalField   nonuniform List<scalar> 
778
(
0.000253138
0.000306392
0.000303056
0.00034425
0.000385129
0.000424943
0.000464383
0.000504637
0.000547441
0.000595511
0.000643884
0.00069219
0.000742085
0.000798375
0.000860093
8.9404e-05
0.000262678
0.000269025
0.000249908
0.000220035
0.000184006
0.000152271
0.000126487
0.000105895
8.94413e-05
7.62937e-05
6.56405e-05
5.68426e-05
4.93748e-05
4.27652e-05
3.65149e-05
3.18145e-05
2.3599e-05
0.000797048
0.00144334
0.000287029
0.000259624
0.000261719
0.000267685
0.000276571
0.000289988
0.000310224
0.0003404
0.000379572
0.000430641
0.00049898
0.000600151
0.000785278
0.00112889
0.000978341
0.000858164
0.000512574
0.000369807
0.000294405
0.000242963
0.000204052
0.000186826
0.0001546
0.000124924
0.000100643
8.14537e-05
6.65032e-05
5.48072e-05
4.56212e-05
3.87005e-05
3.45131e-05
3.2758e-05
6.58275e-05
4.81063e-05
0.00163075
0.00407966
0.000407468
0.000242956
0.000229125
0.000231031
0.00023824
0.000250499
0.000268388
0.000292634
0.000324731
0.000366768
0.000421135
0.00049485
0.000601279
0.000724568
0.000829569
0.00158418
0.00102818
0.000512675
0.00036797
0.000294449
0.000262178
0.000551703
0.000362666
0.000250682
0.000181237
0.000136197
0.000105842
8.47253e-05
6.97851e-05
5.94392e-05
4.51234e-05
3.79781e-05
0.000108314
7.08635e-05
0.00285379
0.00877195
0.000710078
0.000240757
0.000202497
0.000200023
0.000203186
0.000209802
0.000220605
0.000237503
0.000263172
0.000299898
0.000349103
0.000412253
0.000487984
0.000560222
0.000612272
0.00082402
0.00156435
0.000729249
0.000459958
0.000358379
0.000301943
0.000291807
0.000814315
0.000612797
0.000481917
0.000388403
0.000318975
0.000264166
0.000218622
0.000178903
0.000141757
8.37861e-05
5.4884e-05
0.00014897
9.4642e-05
0.0045465
0.0158304
0.00134684
0.000258393
0.00017575
0.000166797
0.000165796
0.000167762
0.000173915
0.000187409
0.000211638
0.000248301
0.000297705
0.000359254
0.000427737
0.000489144
0.00052845
0.000582266
0.000627081
0.000483033
0.000393412
0.000330997
0.000282282
0.000248617
0.000247828
0.000226757
0.000202892
0.000180976
0.00016258
0.000146421
0.00013177
0.000118206
0.00010508
8.45041e-05
6.4195e-05
0.000105384
0.000138972
0.000160619
0.000374195
0.000329367
0.00676444
0.0248829
0.00255456
0.000318168
0.000155558
0.000137072
0.000132125
0.000130684
0.000134448
0.000148537
0.000176682
0.000218043
0.000270759
0.000334083
0.000401686
0.000462594
0.00050288
0.000521505
0.000504552
0.000438092
0.000373732
0.000315608
0.000264724
0.00022338
0.000193289
0.000169627
0.000150802
0.000135601
0.000123255
0.0001127
0.000103248
9.45046e-05
8.60897e-05
7.59289e-05
6.53381e-05
7.76433e-05
9.98769e-05
0.000212174
0.00108247
0.00056264
0.00967349
0.0336415
0.00458586
0.000465205
0.000150875
0.000116352
0.000107088
0.000103275
0.000107068
0.000127908
0.000166118
0.000215885
0.000273323
0.000340133
0.000409401
0.000470508
0.00051017
0.00052037
0.000494195
0.000437537
0.000371803
0.000307474
0.000250549
0.000204435
0.000169742
0.000144552
0.000126321
0.000112729
0.000102263
9.36835e-05
8.61882e-05
7.93226e-05
7.28024e-05
6.6152e-05
6.0292e-05
6.37383e-05
7.69372e-05
0.000177137
0.00163524
0.000923705
0.0127608
0.0404092
0.00749313
0.000871895
0.000194378
0.000115403
9.73881e-05
9.14474e-05
9.86371e-05
0.000137676
0.000189255
0.00024627
0.000307149
0.000374057
0.000445124
0.000508414
0.000547639
0.000551043
0.00051572
0.000451572
0.000375562
0.000301023
0.000236526
0.000185984
0.00014932
0.000123986
0.000106716
9.45793e-05
8.5738e-05
7.87919e-05
7.28731e-05
6.75094e-05
6.24649e-05
5.76573e-05
5.38704e-05
5.56869e-05
7.11422e-05
0.000364716
0.00548013
0.00208552
0.0138284
0.0414559
0.0139372
0.00316661
0.000630905
0.000208219
0.000132724
0.000115987
0.000142419
0.000192829
0.000249197
0.000306432
0.000367587
0.000437179
0.000511852
0.000576507
0.000611461
0.000603439
0.00055228
0.000471077
0.000378648
0.000291084
0.00021839
0.000164104
0.000126827
0.000102647
8.73212e-05
7.73814e-05
7.06909e-05
6.56755e-05
6.14535e-05
5.75966e-05
5.39379e-05
5.05312e-05
4.81449e-05
5.20735e-05
0.000103947
0.00112875
0.0140367
0.00314994
0.0130042
0.0283642
0.014417
0.00572936
0.00210599
0.000835397
0.000414009
0.00027696
0.000278986
0.000314462
0.000355967
0.000401801
0.000459108
0.000531953
0.00061137
0.000675249
0.000699485
0.000670953
0.000593952
0.000486888
0.000372967
0.000271049
0.000191441
0.000135961
0.000100812
7.99779e-05
6.80511e-05
6.12665e-05
5.717e-05
5.42014e-05
5.16192e-05
4.91226e-05
4.66502e-05
4.43874e-05
4.35051e-05
5.44034e-05
0.000254971
0.00387681
0.0104187
0.00324981
0.0106876
0.0193513
0.0120381
0.00630148
0.0031756
0.00167542
0.000987099
0.000679144
0.000559987
0.000517197
0.000510343
0.000531776
0.000584778
0.000664653
0.000749674
0.000806812
0.00080814
0.000744254
0.000628066
0.000486329
0.000348108
0.000234165
0.000152976
0.000102108
7.37725e-05
5.89647e-05
5.15079e-05
4.80582e-05
4.62469e-05
4.49126e-05
4.35878e-05
4.21277e-05
4.0608e-05
3.94575e-05
4.06319e-05
6.04341e-05
0.000403376
0.00348006
0.0085512
0.00320152
0.00806946
0.0137661
0.00969067
0.00593324
0.00356982
0.00222758
0.00149084
0.00109303
0.000869202
0.000743446
0.000686031
0.00069104
0.000752704
0.000847931
0.000935377
0.000970332
0.000926408
0.000805213
0.000634743
0.000452605
0.000293873
0.00017817
0.00010744
6.97382e-05
5.26748e-05
4.45303e-05
4.07109e-05
3.92925e-05
3.86965e-05
3.82393e-05
3.76605e-05
3.69444e-05
3.6408e-05
3.70112e-05
4.1992e-05
6.99364e-05
0.000337337
0.00254203
0.00748521
0.00343575
0.00612211
0.0101676
0.00779064
0.00531232
0.00357013
0.00246919
0.00178808
0.0013683
0.00109298
0.000926164
0.000859951
0.000888809
0.000986676
0.00110214
0.00117306
0.00115115
0.0010258
0.000820563
0.000586156
0.00036943
0.000209243
0.000115051
7.22302e-05
5.2251e-05
4.2844e-05
3.8184e-05
3.59278e-05
3.50834e-05
3.47669e-05
3.45481e-05
3.4339e-05
3.4401e-05
3.56488e-05
4.04821e-05
5.59321e-05
0.000109429
0.000380454
0.00218004
0.00567207
0.00405057
0.00618627
0.00781258
0.00680504
0.0047396
0.00336566
0.00246251
0.00186597
0.00146245
0.00119467
0.00106506
0.00107223
0.00118455
0.00133551
0.00144313
0.00144031
0.00129846
0.00104744
0.000740178
0.000457161
0.000238745
0.00013111
8.13354e-05
5.92565e-05
4.8524e-05
4.26909e-05
3.92526e-05
3.72083e-05
3.60778e-05
3.55327e-05
3.52449e-05
3.53863e-05
3.69765e-05
4.31177e-05
6.23743e-05
0.000116548
0.000255268
0.000636047
0.00219925
0.00519515
0.00406933
0.00454804
0.00511634
0.00418615
0.00336215
0.00263978
0.00206999
0.0016488
0.00136153
0.00124468
0.00130165
0.00148229
0.00169392
0.00183168
0.00181944
0.00163364
0.0012952
0.000903414
0.000518381
0.000277669
0.000153726
9.99797e-05
7.66209e-05
6.50445e-05
5.80853e-05
5.33659e-05
5.00358e-05
4.76782e-05
4.60108e-05
4.50769e-05
4.48927e-05
4.58763e-05
5.04228e-05
6.57333e-05
0.000111063
0.000230937
0.000513653
0.00114426
0.00253922
0.0050901
0.00340702
0.00139909
0.00142894
0.00143041
0.00135095
0.00130859
0.00142061
0.00170662
0.00204577
0.00231313
0.00241315
0.00229433
0.00197389
0.00151988
0.000972505
0.000561663
0.000308012
0.000183467
0.000130606
0.000108481
9.72768e-05
9.00944e-05
8.48912e-05
8.11554e-05
7.87092e-05
7.73233e-05
7.66279e-05
7.62297e-05
7.72153e-05
8.00648e-05
8.76303e-05
0.000108868
0.000166936
0.000315188
0.000663165
0.00141661
0.0028496
0.00482681
0.00294425
0.00118833
0.00171142
0.00194777
0.00230277
0.00274983
0.00315624
0.00334013
0.00331069
0.00308973
0.00269709
0.00212441
0.00150042
0.000963484
0.000562679
0.000332031
0.000224006
0.000180722
0.000163115
0.0001542
0.00014839
0.000144363
0.000142103
0.000141923
0.000144041
0.000148329
0.000154145
0.000160287
0.000165148
0.000170613
0.000180976
0.000203019
0.000256496
0.000384555
0.000678288
0.00131566
0.00262619
0.00538934
0.0032338
0.00742168
0.00812507
0.00482131
0.00339894
0.00372547
0.00413303
0.00414338
0.00393278
0.00358017
0.00312939
0.00262414
0.00207704
0.00152145
0.00102883
0.000664238
0.000447304
0.000346827
0.000308012
0.000293673
0.000286956
0.000281962
0.000277175
0.000272927
0.000270333
0.000270729
0.00027532
0.000285016
0.000300307
0.000321003
0.000345647
0.000370811
0.000395888
0.000438494
0.000513788
0.00065124
0.000922506
0.00150542
0.00309373
0.00477462
0.00422651
0.00650271
0.00514357
0.00435595
0.00461151
0.00453009
0.0042628
0.00368293
0.00303726
0.00245263
0.00196126
0.00155942
0.00123393
0.000971482
0.00077022
0.000629785
0.000547275
0.0005068
0.000491078
0.000488395
0.000491887
0.000497668
0.000503929
0.000510526
0.000518678
0.000530674
0.000549611
0.000579194
0.000623567
0.000687014
0.000773231
0.000883741
0.00101511
0.00115511
0.00131885
0.00154917
0.00191735
0.0025565
0.00401886
0.00533931
0.0047608
0.00535596
0.00337342
0.00332534
0.00362878
0.00389598
0.00357071
0.0029803
0.00237298
0.00184659
0.00141568
0.00106997
0.000801665
0.000610143
0.00049287
0.000436348
0.00041659
0.000417275
0.000427885
0.000442807
0.000459197
0.000475749
0.00049226
0.000509498
0.000529158
0.000553877
0.000587386
0.000634748
0.000702397
0.000797435
0.000925919
0.00109094
0.00129247
0.00153071
0.00181332
0.00214471
0.00252821
0.00297523
0.00351455
0.00415106
0.00367033
)
;

boundaryField
{
    floor
    {
        Cmu             0.09;
        kappa           0.41;
        E               9.8;
        type            epsilonWallFunction;
        value           nonuniform List<scalar> 
36
(
0.000860093
8.9404e-05
0.000262678
0.000269025
0.000249908
0.000220035
0.000184006
0.000152271
0.000126487
0.000105895
8.94413e-05
7.62937e-05
6.56405e-05
5.68426e-05
4.93748e-05
4.27652e-05
3.65149e-05
3.18145e-05
2.3599e-05
2.3599e-05
4.81063e-05
7.08635e-05
9.4642e-05
0.000160619
0.000374195
0.000329367
0.000860093
0.00112889
0.000978341
0.000858164
8.9404e-05
0.000858164
0.000512574
0.00158418
0.00102818
0.00156435
)
;
    }
    ceiling
    {
        Cmu             0.09;
        kappa           0.41;
        E               9.8;
        type            epsilonWallFunction;
        value           nonuniform List<scalar> 
43
(
0.00535596
0.00337342
0.00332534
0.00362878
0.00389598
0.00357071
0.0029803
0.00237298
0.00184659
0.00141568
0.00106997
0.000801665
0.000610143
0.00049287
0.000436348
0.00041659
0.000417275
0.000427885
0.000442807
0.000459197
0.000475749
0.00049226
0.000509498
0.000529158
0.000553877
0.000587386
0.000634748
0.000702397
0.000797435
0.000925919
0.00109094
0.00129247
0.00153071
0.00181332
0.00214471
0.00252821
0.00297523
0.00351455
0.00415106
0.00367033
0.00454804
0.00511634
0.00118833
)
;
    }
    sWall
    {
        Cmu             0.09;
        kappa           0.41;
        E               9.8;
        type            epsilonWallFunction;
        value           nonuniform List<scalar> 9(0.0130042 0.0106876 0.00806946 0.00612211 0.00618627 0.00454804 0.00742168 0.00650271 0.00535596);
    }
    nWall
    {
        Cmu             0.09;
        kappa           0.41;
        E               9.8;
        type            epsilonWallFunction;
        value           nonuniform List<scalar> 
14
(
0.000329367
0.00056264
0.000923705
0.00324981
0.00320152
0.00343575
0.00405057
0.00406933
0.00340702
0.00294425
0.0032338
0.00422651
0.0047608
0.00367033
)
;
    }
    sideWalls
    {
        type            empty;
    }
    glass1
    {
        Cmu             0.09;
        kappa           0.41;
        E               9.8;
        type            epsilonWallFunction;
        value           nonuniform List<scalar> 9(0.000253138 0.000797048 0.00163075 0.00285379 0.0045465 0.00676444 0.00967349 0.0127608 0.0138284);
    }
    glass2
    {
        Cmu             0.09;
        kappa           0.41;
        E               9.8;
        type            epsilonWallFunction;
        value           nonuniform List<scalar> 2(0.00208552 0.00314994);
    }
    sun
    {
        Cmu             0.09;
        kappa           0.41;
        E               9.8;
        type            epsilonWallFunction;
        value           nonuniform List<scalar> 
14
(
0.000253138
0.000306392
0.000303056
0.00034425
0.000385129
0.000424943
0.000464383
0.000504637
0.000547441
0.000595511
0.000643884
0.00069219
0.000742085
0.000798375
)
;
    }
    Table_master
    {
        Cmu             0.09;
        kappa           0.41;
        E               9.8;
        type            epsilonWallFunction;
        value           nonuniform List<scalar> 9(0.000551703 0.000362666 0.000250682 0.000181237 0.000136197 0.000105842 8.47253e-05 6.97851e-05 5.94392e-05);
    }
    Table_slave
    {
        Cmu             0.09;
        kappa           0.41;
        E               9.8;
        type            epsilonWallFunction;
        value           nonuniform List<scalar> 9(0.000814315 0.000612797 0.000481917 0.000388403 0.000318975 0.000264166 0.000218622 0.000178903 0.000141757);
    }
    inlet
    {
        type            turbulentMixingLengthDissipationRateInlet;
        mixingLength    0.01;
        phi             phi;
        k               k;
        value           uniform 0.000471671;
    }
    outlet
    {
        type            zeroGradient;
    }
}


// ************************************************************************* //
