/*--------------------------------*- C++ -*----------------------------------*=========                 |
  \      /  F ield         | OpenFOAM: The Open Source CFD Toolbox
   \    /   O peration     | Website:  https://openfoam.org
    \  /    A nd           | Version:  6
     \/     M anipulation  |
\*---------------------------------------------------------------------------*/
FoamFile
{
    version     2.0;
    format      ascii;
    class       volScalarField;
    location    "130";
    object      PMV;
}
// * * * * * * * * * * * * * * * * * * * * * * * * * * * * * * * * * * * * * //

dimensions      [0 0 0 0 0 0 0];

internalField   nonuniform List<scalar> 
458
(
1.172417616974768
0.9129919654341347
0.8702449420014875
0.8424964888222567
0.8328280169274827
0.8416610267438969
0.8709237305891306
0.926458740218865
1.0092926739786219
1.1165500012696676
1.1046581255510757
1.0757602567053857
1.0662710034506035
1.0899628128956986
1.1067930086495992
1.6023239606465862
1.568372416859445
1.54302411628065
1.5454157939487925
1.5597635990552883
1.554572934913763
1.5476168696042245
1.5511879554593397
1.5607787251284255
1.5722555544477763
1.5841013266605937
1.5972655797374822
1.6116526678017853
1.628315173460466
1.650295582473176
1.6815793543098814
1.727543197558534
1.7776571619604433
1.0871175610363775
0.9295289242793089
0.909584015745143
0.8830526259182168
0.8722310935522817
0.8772056256647742
0.890626011775609
0.9106191975616913
0.9489149054275182
1.0337402176626271
1.103788055478732
1.121566851909484
1.1153649561339622
1.0970242863096733
1.0668090254524527
1.0643355158174395
1.116292960167259
1.1938913628292611
1.6101539182487716
1.5315435098125545
1.5018367966635784
1.4874080184054124
1.4942392366812964
1.5088332416426278
1.5230947704492679
1.5384861143208202
1.5535768749542413
1.568418785818784
1.5835027373657409
1.5993641610924263
1.615554364082277
1.632894680403839
1.6556158362659021
1.6889396459602026
1.7266899609841622
1.76192791936308
1.0948996410817868
0.9252783011685874
0.9535871110696235
0.9454319156954164
0.9424609757177804
0.9402994398996277
0.9150579230789538
0.8739258306115528
0.8758620166114097
0.9607736055179876
1.0665153828922964
1.1404103720847896
1.166635674483268
1.1517692044676913
1.1226159144132137
1.12105604642902
1.1408138521376474
1.160256999861466
1.5127228208400172
1.4277360132407355
1.3966496898135508
1.415863231886311
1.4491169753138904
1.468485585400371
1.5111905507686836
1.54958697051371
1.5780063862255211
1.601692999401825
1.6242336584303372
1.6463087867105872
1.666197440052576
1.6796038944595324
1.6939791780172093
1.7163820334407653
1.7258198035514976
1.7168776460215542
1.1523199535950657
0.9240333968839469
0.9906080980699276
1.0243778326394484
1.050047675935288
1.0369709499008601
0.9429708549169913
0.8365511997978873
0.8192316272264947
0.910765671389124
1.0427488594242227
1.1587127834994209
1.2235941128863714
1.2266042287524566
1.1960589387343725
1.169866238006506
1.141493981966757
1.112930148538464
1.102739936086348
1.1743060827116063
1.2423528104666497
1.3181211565940634
1.4034320042817374
1.4861129502226147
1.552280479016721
1.5788440026879478
1.6022620856362622
1.6307246873563308
1.6622929820308998
1.6947331351716353
1.7288849113466935
1.7670301865921092
1.814996129923091
1.8016199735239173
1.770130063909385
1.7339464931447912
1.694766259609296
1.2350209159117451
0.9386889303412732
1.0231656189200538
1.1071821778037951
1.209927032541553
1.135895253533107
0.9552019848308251
0.8018583223300172
0.7795273212743895
0.8796340200537249
1.0421542800423518
1.1958740425435939
1.2983225068929563
1.3244723734874324
1.2917812975137934
1.248306986875644
1.2067142256214776
1.1796595090265634
1.1977524393430972
1.2432918056489235
1.3169303642603831
1.410715775971003
1.5097934582123507
1.602398413644835
1.6797594841068297
1.7277934233125156
1.7662739010550237
1.8001003728474998
1.8289743934411886
1.8531215833039087
1.87266788098354
1.8874983843873603
1.8926090837620406
1.8650840944135143
1.8123036210931653
1.7479857277760928
1.7287027991885122
1.8412293223550456
2.000035418760195
1.8848490609104311
1.326073798124386
0.9757001084721315
1.0741725292894662
1.1817982179167683
1.2821344394248175
1.1383981152945273
0.9296147772850549
0.7700502090929682
0.7475235517145441
0.870183617814136
1.0720226397828891
1.2677516153846295
1.408879685520883
1.4391895850399288
1.423872219290575
1.3736306839520869
1.3323533577277464
1.3165758685323965
1.3462914390194483
1.4091961462949576
1.4964262230424794
1.5937765244018673
1.6902385793050498
1.7783613773895295
1.8382547004123317
1.8773558071498895
1.9069060000920204
1.9288220543485148
1.9450161455357906
1.9564447709185528
1.961682185679587
1.9607299617467107
1.950730720184466
1.9235819194763781
1.8635904043107785
1.7887864248557483
1.7636025667610393
1.8131760664478889
1.8720656679046126
1.904395953356639
1.4236851107353943
1.0713352158045566
1.2267762154575765
1.277656835574534
1.2420530189062131
1.0809286429539908
0.8645645081389618
0.7085039419288289
0.7174990169094608
0.8912119540372537
1.1493756561679203
1.393500687470931
1.526759657134422
1.544937461629583
1.5258028680235405
1.5057088945915487
1.5004457539003524
1.5200620044759032
1.5745895552774931
1.6510831209270003
1.729435048944508
1.8043828379677829
1.8687744076432766
1.9207234875243318
1.9607299617467107
1.9888142189518399
2.0064194834917464
2.0197387198388648
2.0292504765203576
2.033530218514196
2.0330547085794537
2.0249703929547183
2.008322427308594
1.9792956205955705
1.93607116007902
1.8612841244363207
1.8196619410828363
1.8215742241416564
1.8229738563941664
1.906510462246235
1.5622267544281014
1.4326769611430359
1.3959529551980834
1.3062981107391662
1.201593442310853
0.9721025380697427
0.7199444046055186
0.6010039970421971
0.7025611720155618
0.9735290761981891
1.3120899825763515
1.579371771928592
1.6544285889103665
1.6649422628100412
1.652994829117623
1.646303708917522
1.657296053357964
1.694088465992194
1.7599946006757068
1.8377777325891722
1.906429484336724
1.964538768236283
2.0111767213357017
2.045891973516613
2.0691810760298095
2.0825290738274727
2.090348939153631
2.0973196527805684
2.1010075911318418
2.10005785339484
2.094359023264442
2.0834343524308965
2.066329926161532
2.041137796736049
2.0059437374292366
1.9726316864160671
1.950136722944436
1.931043117668646
1.8874727402957059
1.8392000360033438
1.7728926367900617
1.654948991660246
1.5217945570363534
1.3987770733009646
1.0486607736675968
0.6299947652100975
0.39937585472288145
0.4554042222364225
0.776795558563676
1.207605145078766
1.5984988825476454
1.7415000342479658
1.760609795464863
1.761732394951071
1.7664866448088838
1.7848238075095588
1.8209193662683514
1.8753995482502972
1.9394265200619587
1.998691054453062
2.043578210843387
2.075140406893525
2.096019059277896
2.108855084936945
2.1165735606168927
2.121556612678395
2.123954735397309
2.123603669738792
2.1190200112653996
2.1101740899998447
2.0965680958923625
2.078654455788489
2.058132421045981
2.03644518857894
2.0158790623936023
2.001067806195946
1.9961614615337622
1.9986966264426862
1.993930730189146
1.9885661607279925
-2.307593305032253
-1.9238508885264494
-1.5717218281413703
-0.9206388873337258
-0.17406258666529933
0.5688164884471733
1.2730336678118312
1.6579033689501945
1.7827126289902138
1.8357655243982658
1.8578387588699208
1.872972120030857
1.8917390069539317
1.9187915034524754
1.9563152547344116
2.0013958669383354
2.049155799825793
2.091586969313011
2.1239562335823887
2.1456115380329077
2.158653299946028
2.1648636074638605
2.167254534724964
2.166653268615895
2.163295841539842
2.157444919785339
2.1479109844675666
2.136018687230875
2.122652787374547
2.1082497331881638
2.0951983492182387
2.0842383709677943
2.0769897020290533
2.077225821094131
2.0890923830575976
2.125651376484721
2.211246012132755
2.2150271606357754
-2.09724384503847
-0.8299630772475015
0.25498899954743093
0.875788690962081
1.2451501307931683
1.5275919127764095
1.7411776474402416
1.8656264103407416
1.9292157501373386
1.9635515891193664
1.9872118125607818
2.0095096781134916
2.0335053227138977
2.061701506740078
2.0934088293322377
2.1273046834698666
2.159019114859597
2.1854204697557047
2.2046366406302833
2.21593180097566
2.2215902366329936
2.222306195904444
2.2201840556765093
2.215239994904113
2.208486413815159
2.1994863653664565
2.189371965178686
2.1788375676061165
2.168654882920871
2.1597084976443317
2.153501581755787
2.1514245517120396
2.1549982462719726
2.163122970128561
2.1770068079967326
2.2271359330121028
2.191789705649408
2.2380304997629343
-0.6768554118547302
-0.6926855671640578
-0.589631650033388
0.5515692147479374
1.3308994645897685
1.709384670208527
1.8750309382385772
1.968083190545493
2.0306594837358074
2.0738084133095396
2.1046970933636073
2.129168549819813
2.149844552695834
2.1690566948143992
2.1870584085443983
2.2050456801476237
2.223023857631714
2.2393119446552574
2.253219374079231
2.2630571223445837
2.2688078499171063
2.27004385840678
2.2684753773692026
2.264255668501293
2.2585507612499405
2.2509562288448977
2.2426507760181
2.2338179124798523
2.2241584005948334
2.2149420229866403
2.2058741048739257
2.1981971140984977
2.1915204549863234
2.1864019226733538
2.1818459043679694
2.1764726208877545
2.1783138159947453
2.194195707539986
2.1945922009896024
2.2321081276005565
)
;

boundaryField
{
    ".*"
    {
        type            zeroGradient;
    }
}


// ************************************************************************* //
