/*--------------------------------*- C++ -*----------------------------------*\
  =========                 |
  \\      /  F ield         | OpenFOAM: The Open Source CFD Toolbox
   \\    /   O peration     | Website:  https://openfoam.org
    \\  /    A nd           | Version:  6
     \\/     M anipulation  |
\*---------------------------------------------------------------------------*/
FoamFile
{
    version     2.0;
    format      ascii;
    class       volScalarField;
    location    "37499.9999986526309";
    object      epsilon;
}
// * * * * * * * * * * * * * * * * * * * * * * * * * * * * * * * * * * * * * //

dimensions      [0 2 -3 0 0 0 0];

internalField   nonuniform List<scalar> 
778
(
0.000253124
0.000306341
0.000302976
0.000344138
0.000384997
0.000424806
0.00046426
0.00050455
0.000547413
0.000595565
0.000644063
0.000692513
0.000742557
0.000798987
0.000860821
8.94787e-05
0.000262727
0.000269219
0.000250198
0.000220361
0.000184289
0.000152471
0.00012661
0.00010597
8.9495e-05
7.63403e-05
6.56837e-05
5.6883e-05
4.94115e-05
4.27971e-05
3.65412e-05
3.18318e-05
2.36076e-05
0.000797019
0.00144322
0.000286974
0.000259569
0.00026167
0.000267647
0.000276551
0.000289993
0.000310264
0.000340495
0.000379755
0.000430939
0.000499415
0.000600735
0.000786027
0.00112989
0.000979219
0.00085877
0.000511799
0.000369496
0.000294305
0.000243021
0.000204215
0.000187084
0.000154838
0.000125094
0.000100752
8.15218e-05
6.65482e-05
5.48385e-05
4.56455e-05
3.87213e-05
3.45317e-05
3.27772e-05
6.57835e-05
4.80979e-05
0.0016307
0.00407919
0.000407388
0.00024291
0.000229089
0.000231008
0.000238233
0.000250512
0.000268433
0.000292727
0.000324886
0.000366998
0.000421442
0.000495218
0.000601676
0.000725003
0.000830193
0.00158462
0.0010278
0.000512325
0.000367763
0.000294378
0.00026223
0.000551828
0.000362918
0.000250971
0.000181497
0.000136402
0.00010599
8.4826e-05
6.98538e-05
5.94889e-05
4.51544e-05
3.79988e-05
0.000108083
7.07987e-05
0.00285368
0.00877061
0.000709894
0.00024071
0.000202466
0.000200008
0.00020319
0.000209827
0.000220657
0.000237591
0.000263305
0.000300087
0.000349348
0.000412531
0.000488244
0.000560437
0.000612619
0.000824671
0.00156518
0.000728827
0.000459734
0.000358268
0.000301904
0.000291827
0.000814255
0.000612848
0.000482084
0.000388679
0.000319287
0.000264465
0.00021888
0.000179116
0.000141933
8.38678e-05
5.49442e-05
0.000148341
9.45086e-05
0.00454627
0.0158275
0.00134638
0.000258334
0.00017572
0.000166784
0.000165802
0.000167789
0.000173961
0.000187476
0.000211737
0.000248447
0.000297907
0.000359497
0.000427992
0.000489369
0.000528747
0.00058265
0.000627747
0.000483284
0.000393523
0.000331037
0.000282297
0.000248632
0.000247851
0.000226802
0.000202969
0.000181099
0.000162725
0.000146565
0.000131891
0.000118288
0.000105114
8.4528e-05
6.42754e-05
0.000105094
0.000138782
0.000159961
0.000359897
0.000319504
0.00676398
0.024878
0.00255345
0.000318069
0.000155525
0.000137057
0.000132128
0.000130705
0.000134479
0.000148568
0.000176722
0.000218108
0.000270867
0.000334228
0.000401882
0.000462784
0.000503179
0.000521884
0.000504997
0.000438396
0.000373906
0.000315694
0.000264769
0.000223411
0.000193313
0.000169649
0.000150829
0.000135641
0.00012331
0.000112765
0.000103309
9.45346e-05
8.60681e-05
7.58944e-05
6.54135e-05
7.75972e-05
9.97043e-05
0.000208195
0.00105849
0.000549184
0.00967247
0.0336362
0.00458351
0.000464998
0.000150837
0.000116339
0.000107093
0.000103296
0.000107096
0.000127914
0.000166106
0.000215856
0.000273294
0.000340077
0.000409408
0.000470573
0.000510328
0.000520633
0.000494505
0.000437781
0.000371943
0.00030754
0.000250585
0.000204465
0.000169766
0.000144565
0.000126326
0.000112735
0.000102285
9.37261e-05
8.62395e-05
7.93535e-05
7.27814e-05
6.61053e-05
6.03748e-05
6.38391e-05
7.67023e-05
0.000171621
0.00157327
0.000893592
0.0127592
0.0404052
0.00748941
0.00087134
0.000194312
0.000115401
9.74102e-05
9.14921e-05
9.87009e-05
0.000137743
0.000189273
0.000246201
0.000306978
0.000373786
0.000444789
0.000508128
0.000547521
0.000551117
0.000515894
0.000451713
0.000375608
0.000301002
0.000236491
0.000185963
0.000149308
0.000123967
0.000106691
9.45503e-05
8.57297e-05
7.88167e-05
7.29253e-05
6.75631e-05
6.24857e-05
5.7661e-05
5.40337e-05
5.60153e-05
6.99981e-05
0.000337107
0.00540287
0.0019659
0.013828
0.0414599
0.0139306
0.00316292
0.000630027
0.000208132
0.000132797
0.000116113
0.000142636
0.000193082
0.000249365
0.000306404
0.000367272
0.000436535
0.000510988
0.000575696
0.00061096
0.000603301
0.000552335
0.000471109
0.000378549
0.000290894
0.000218199
0.000163962
0.000126728
0.000102564
8.72422e-05
7.73022e-05
7.06365e-05
6.56619e-05
6.14841e-05
5.76603e-05
5.40172e-05
5.06638e-05
4.85842e-05
5.29735e-05
9.59115e-05
0.000942245
0.0131208
0.00293669
0.0130051
0.0283717
0.0144147
0.00572591
0.00210445
0.000835143
0.000414257
0.000277373
0.000279534
0.000315023
0.000356356
0.000401812
0.000458528
0.000530703
0.00060971
0.000673727
0.000698564
0.000670678
0.000593982
0.000486836
0.000372657
0.000270583
0.000190993
0.00013563
0.000100589
7.98124e-05
6.79067e-05
6.11274e-05
5.70508e-05
5.41153e-05
5.15745e-05
4.91244e-05
4.67163e-05
4.46452e-05
4.45704e-05
5.79538e-05
0.000212342
0.00254387
0.0111685
0.00309015
0.0106899
0.0193572
0.0120383
0.00630014
0.00317487
0.00167542
0.000987565
0.00067989
0.000560867
0.000518026
0.00051088
0.000531657
0.0005836
0.000662348
0.000746829
0.000804438
0.000806938
0.000744121
0.000628282
0.000486234
0.000347472
0.000233297
0.000152223
0.000101615
7.34772e-05
5.87535e-05
5.13102e-05
4.78655e-05
4.60583e-05
4.47344e-05
4.34157e-05
4.19523e-05
4.04341e-05
3.95139e-05
4.30244e-05
8.54333e-05
0.000584529
0.00288988
0.0082809
0.00297439
0.00807182
0.0137686
0.00969116
0.00593307
0.00356985
0.00222787
0.00149132
0.00109369
0.000870027
0.000744234
0.00068641
0.000690319
0.000750219
0.000843814
0.000930899
0.000967212
0.000925482
0.00080584
0.000635448
0.000452442
0.000292715
0.000176921
0.000106677
6.93376e-05
5.24447e-05
4.43252e-05
4.04766e-05
3.90458e-05
3.8449e-05
3.7996e-05
3.73956e-05
3.65793e-05
3.57445e-05
3.6115e-05
4.73513e-05
0.000171178
0.000892007
0.00283962
0.00616258
0.0026877
0.00612214
0.0101633
0.00778802
0.00531141
0.00356988
0.00246916
0.00178819
0.00136857
0.00109339
0.000926591
0.000859678
0.000886552
0.00098162
0.00109518
0.00116677
0.00114812
0.00102649
0.000822903
0.000587425
0.000369005
0.00020763
0.000114209
7.19513e-05
5.22839e-05
4.2922e-05
3.81344e-05
3.57046e-05
3.47887e-05
3.44675e-05
3.43087e-05
3.41473e-05
3.40083e-05
3.42431e-05
3.68089e-05
5.57504e-05
0.000197169
0.000865957
0.00256573
0.00560272
0.00252073
0.00617959
0.00780446
0.00679923
0.00473699
0.00336421
0.00246157
0.00186537
0.00146216
0.00119476
0.00106509
0.00107052
0.00117904
0.00132602
0.00143255
0.00143322
0.00129787
0.00105199
0.000744749
0.00045793
0.000238646
0.000130829
8.16996e-05
6.01607e-05
4.96292e-05
4.35948e-05
3.96464e-05
3.70295e-05
3.56351e-05
3.50688e-05
3.50446e-05
3.55831e-05
3.69395e-05
3.97202e-05
4.61416e-05
6.81277e-05
0.000174864
0.000653815
0.00205074
0.00482854
0.00299512
0.00454435
0.0051104
0.00418312
0.00336062
0.00263886
0.00206943
0.00164848
0.0013617
0.0012455
0.00130129
0.0014773
0.00168239
0.0018162
0.00180649
0.00162956
0.00130095
0.000913263
0.000522511
0.000279838
0.000155111
0.000101957
7.96297e-05
6.88037e-05
6.19225e-05
5.64194e-05
5.15573e-05
4.74466e-05
4.47326e-05
4.37838e-05
4.4522e-05
4.74986e-05
5.37483e-05
6.4665e-05
8.27381e-05
0.000116927
0.000208336
0.00054589
0.00188684
0.00372767
0.00320927
0.00140139
0.0014314
0.00143327
0.00135368
0.00131117
0.00142441
0.00170979
0.00204324
0.00230112
0.00239337
0.00227477
0.00196376
0.00152365
0.000982439
0.000571592
0.000313784
0.000187884
0.000135891
0.000115605
0.000106181
0.000100003
9.44451e-05
8.85587e-05
8.21568e-05
7.58357e-05
7.12217e-05
7.03655e-05
7.40563e-05
8.42664e-05
0.000103973
0.000136466
0.000185605
0.000260823
0.000395725
0.00071418
0.00205601
0.00336761
0.00333078
0.00118739
0.00171635
0.00195294
0.00230943
0.00275873
0.00316267
0.00334012
0.00330092
0.00307049
0.00267389
0.00210687
0.00149154
0.000963457
0.00056796
0.000339999
0.000233855
0.000192885
0.000177716
0.000170943
0.000166594
0.000162796
0.000158676
0.000153567
0.000147142
0.000140032
0.000134606
0.000135071
0.000143915
0.000165251
0.00020516
0.000271204
0.000372793
0.000525774
0.000767492
0.00119662
0.00218098
0.00416697
0.00302593
0.00742154
0.008072
0.00480604
0.00340208
0.00373825
0.00415193
0.00416609
0.00395457
0.00359482
0.00313566
0.00262365
0.00207965
0.00153276
0.00105126
0.000694969
0.000477717
0.000372912
0.000329652
0.00031095
0.000300389
0.000293069
0.000288038
0.000285112
0.000283692
0.000282537
0.00028024
0.000276447
0.000273711
0.000277708
0.000291961
0.000321462
0.000374062
0.000461167
0.000599254
0.000814291
0.00115286
0.00170291
0.00259236
0.00390981
0.00278332
0.00650515
0.0051328
0.00437245
0.00462548
0.0045447
0.00427607
0.00369437
0.00304711
0.00246066
0.00196657
0.00156103
0.00123356
0.000978872
0.000795949
0.000679554
0.000613101
0.000571717
0.000543176
0.000521792
0.000505999
0.000496526
0.000494821
0.000501936
0.000517817
0.000541003
0.000568789
0.000597829
0.000624959
0.000649532
0.00067841
0.000720333
0.000784721
0.000882619
0.00102951
0.00125033
0.00158638
0.00210115
0.00290508
0.00369688
0.00315936
0.00535782
0.00336887
0.00331777
0.00361378
0.00387073
0.00352938
0.00292434
0.00230825
0.00178317
0.00136613
0.00104512
0.000805867
0.000637166
0.000528571
0.000467125
0.000437804
0.000430153
0.000431701
0.000439391
0.000453824
0.000476563
0.000508804
0.000550542
0.000600353
0.000655821
0.000714395
0.000774353
0.000835701
0.000900302
0.000969126
0.0010475
0.00114219
0.00126001
0.00140716
0.00158754
0.00179832
0.00202799
0.0022895
0.00270964
0.00281889
)
;

boundaryField
{
    floor
    {
        Cmu             0.09;
        kappa           0.41;
        E               9.8;
        type            epsilonWallFunction;
        value           nonuniform List<scalar> 
36
(
0.000860821
8.94787e-05
0.000262727
0.000269219
0.000250198
0.000220361
0.000184289
0.000152471
0.00012661
0.00010597
8.9495e-05
7.63403e-05
6.56837e-05
5.6883e-05
4.94115e-05
4.27971e-05
3.65412e-05
3.18318e-05
2.36076e-05
2.36076e-05
4.80979e-05
7.07987e-05
9.45086e-05
0.000159961
0.000359897
0.000319504
0.000860821
0.00112989
0.000979219
0.00085877
8.94787e-05
0.00085877
0.000511799
0.00158462
0.0010278
0.00156518
)
;
    }
    ceiling
    {
        Cmu             0.09;
        kappa           0.41;
        E               9.8;
        type            epsilonWallFunction;
        value           nonuniform List<scalar> 
43
(
0.00535782
0.00336887
0.00331777
0.00361378
0.00387073
0.00352938
0.00292434
0.00230825
0.00178317
0.00136613
0.00104512
0.000805867
0.000637166
0.000528571
0.000467125
0.000437804
0.000430153
0.000431701
0.000439391
0.000453824
0.000476563
0.000508804
0.000550542
0.000600353
0.000655821
0.000714395
0.000774353
0.000835701
0.000900302
0.000969126
0.0010475
0.00114219
0.00126001
0.00140716
0.00158754
0.00179832
0.00202799
0.0022895
0.00270964
0.00281889
0.00454435
0.0051104
0.00118739
)
;
    }
    sWall
    {
        Cmu             0.09;
        kappa           0.41;
        E               9.8;
        type            epsilonWallFunction;
        value           nonuniform List<scalar> 9(0.0130051 0.0106899 0.00807182 0.00612214 0.00617959 0.00454435 0.00742154 0.00650515 0.00535782);
    }
    nWall
    {
        Cmu             0.09;
        kappa           0.41;
        E               9.8;
        type            epsilonWallFunction;
        value           nonuniform List<scalar> 
14
(
0.000319504
0.000549184
0.000893592
0.00309015
0.00297439
0.0026877
0.00252073
0.00299512
0.00320927
0.00333078
0.00302593
0.00278332
0.00315936
0.00281889
)
;
    }
    sideWalls
    {
        type            empty;
    }
    glass1
    {
        Cmu             0.09;
        kappa           0.41;
        E               9.8;
        type            epsilonWallFunction;
        value           nonuniform List<scalar> 9(0.000253124 0.000797019 0.0016307 0.00285368 0.00454627 0.00676398 0.00967247 0.0127592 0.013828);
    }
    glass2
    {
        Cmu             0.09;
        kappa           0.41;
        E               9.8;
        type            epsilonWallFunction;
        value           nonuniform List<scalar> 2(0.0019659 0.00293669);
    }
    sun
    {
        Cmu             0.09;
        kappa           0.41;
        E               9.8;
        type            epsilonWallFunction;
        value           nonuniform List<scalar> 
14
(
0.000253124
0.000306341
0.000302976
0.000344138
0.000384997
0.000424806
0.00046426
0.00050455
0.000547413
0.000595565
0.000644063
0.000692513
0.000742557
0.000798987
)
;
    }
    Table_master
    {
        Cmu             0.09;
        kappa           0.41;
        E               9.8;
        type            epsilonWallFunction;
        value           nonuniform List<scalar> 9(0.000551828 0.000362918 0.000250971 0.000181497 0.000136402 0.00010599 8.4826e-05 6.98538e-05 5.94889e-05);
    }
    Table_slave
    {
        Cmu             0.09;
        kappa           0.41;
        E               9.8;
        type            epsilonWallFunction;
        value           nonuniform List<scalar> 9(0.000814255 0.000612848 0.000482084 0.000388679 0.000319287 0.000264465 0.00021888 0.000179116 0.000141933);
    }
    inlet
    {
        type            turbulentMixingLengthDissipationRateInlet;
        mixingLength    0.01;
        phi             phi;
        k               k;
        value           uniform 0.000471671;
    }
    outlet
    {
        type            zeroGradient;
    }
}


// ************************************************************************* //
