/*--------------------------------*- C++ -*----------------------------------*\
  =========                 |
  \\      /  F ield         | OpenFOAM: The Open Source CFD Toolbox
   \\    /   O peration     | Website:  https://openfoam.org
    \\  /    A nd           | Version:  6
     \\/     M anipulation  |
\*---------------------------------------------------------------------------*/
FoamFile
{
    version     2.0;
    format      ascii;
    class       volScalarField;
    location    "37499.9999986526309";
    object      k;
}
// * * * * * * * * * * * * * * * * * * * * * * * * * * * * * * * * * * * * * //

dimensions      [0 2 -2 0 0 0 0];

internalField   nonuniform List<scalar> 
778
(
0.00158595
0.0018011
0.00178789
0.00194636
0.00209752
0.00223973
0.00237634
0.00251191
0.00265223
0.00280557
0.00295588
0.00310232
0.00325004
0.00341267
0.00358655
0.000792894
0.00162581
0.00165248
0.0015737
0.00144596
0.00128351
0.00113116
0.00099934
0.000887544
0.000792988
0.000713241
0.000645217
0.000586214
0.000533687
0.000484928
0.000436438
0.000398085
0.000326163
0.00340706
0.00643349
0.00268742
0.0027459
0.00288751
0.00305401
0.00323429
0.00342999
0.0036432
0.00387358
0.00412581
0.00437984
0.00459597
0.00470154
0.00459597
0.00429959
0.0039083
0.00358085
0.00253591
0.0028124
0.00295525
0.00289816
0.00266559
0.00226639
0.00190679
0.00161024
0.00137028
0.00117628
0.00101736
0.000885513
0.000774228
0.000681402
0.000615393
0.000574913
0.000864272
0.000524185
0.00549098
0.0127814
0.00347789
0.00321192
0.00329718
0.00345496
0.00363629
0.00384041
0.00407074
0.00432748
0.00463573
0.00501142
0.00545205
0.00596209
0.00653355
0.00686242
0.00627979
0.00538705
0.00403652
0.00416811
0.00417187
0.00397512
0.00357809
0.00266646
0.00201653
0.00157694
0.00127052
0.00105022
0.000887654
0.000765162
0.000672245
0.000603983
0.000551721
0.0005489
0.00116457
0.000678292
0.00797391
0.0217589
0.00449115
0.00339053
0.00334124
0.00343778
0.00354915
0.00366862
0.00380887
0.00399127
0.00425926
0.00464898
0.0051723
0.00582697
0.00655696
0.00713687
0.00723004
0.00724416
0.00534291
0.0055491
0.00537453
0.0051241
0.00478604
0.0043479
0.00345601
0.00285958
0.00243678
0.00211087
0.00185149
0.00163297
0.00143948
0.00125938
0.00107842
0.00080126
0.000660201
0.00141913
0.000822331
0.0108769
0.0336351
0.00621282
0.00342478
0.003158
0.00316669
0.00318936
0.00320972
0.00325203
0.00336105
0.00359482
0.00398966
0.00455464
0.00527886
0.00608976
0.00682047
0.00728568
0.00764542
0.00751791
0.00665374
0.00607222
0.00557789
0.00509833
0.00462923
0.00412337
0.00366613
0.00327567
0.00293813
0.00263196
0.00234852
0.00207994
0.00181908
0.00155538
0.0012225
0.000931354
0.00118966
0.00121622
0.00116791
0.00200541
0.00185232
0.0141754
0.0475985
0.00928386
0.00348982
0.00290827
0.00282249
0.00276424
0.0026995
0.00266423
0.00273451
0.00298081
0.00341461
0.00402475
0.00480019
0.00565703
0.00646451
0.00707168
0.00740911
0.00732459
0.00678992
0.00621449
0.00563648
0.0050739
0.00455601
0.00409163
0.00369609
0.00336352
0.00307413
0.00280729
0.00255212
0.00229962
0.00204276
0.00177415
0.00147177
0.00117981
0.00111353
0.00111205
0.00169874
0.0050398
0.0026579
0.0179925
0.060605
0.0143593
0.00381939
0.00271498
0.00252919
0.00241171
0.00229409
0.00222118
0.0023115
0.00263013
0.00313938
0.00380301
0.00463357
0.00553206
0.00637063
0.00700435
0.00733067
0.00725612
0.00681891
0.00621559
0.00555475
0.00491187
0.00434292
0.00387272
0.00350061
0.0032068
0.00296188
0.00274162
0.00252959
0.00231413
0.0020878
0.00184558
0.00158326
0.001329
0.0011628
0.00109391
0.00154478
0.00618428
0.003677
0.0216414
0.0704801
0.0214347
0.00510213
0.00274268
0.00237172
0.00221018
0.00208216
0.00202666
0.00221966
0.0026497
0.00323095
0.003938
0.00477661
0.00570224
0.00657724
0.00722724
0.00751705
0.00738678
0.00689803
0.00619931
0.0054275
0.00469177
0.00406459
0.00357441
0.00321225
0.00294726
0.00274061
0.00256409
0.00239606
0.00222262
0.00203602
0.00183261
0.0016136
0.00139955
0.00123615
0.0011593
0.00206842
0.013676
0.00622008
0.0228336
0.0694946
0.0325315
0.0110552
0.00406696
0.00258744
0.00223575
0.0021035
0.00219084
0.00251329
0.00300098
0.00360238
0.00433313
0.00521386
0.0061869
0.00708975
0.00771966
0.00792583
0.00766748
0.00702815
0.00616716
0.00524952
0.00440779
0.00372222
0.00321613
0.00286811
0.00263461
0.00246809
0.00233551
0.00221089
0.00207923
0.00193325
0.00177046
0.00159393
0.00142054
0.0013002
0.00135559
0.00380826
0.0260696
0.0081275
0.0219185
0.0516363
0.0336421
0.0174322
0.00858733
0.00476005
0.00326253
0.00273159
0.00285538
0.00321312
0.003674
0.00424715
0.00499523
0.00593741
0.00697272
0.00788638
0.00844174
0.00848563
0.00800675
0.00712731
0.00604389
0.00495513
0.0040113
0.00328986
0.00279678
0.00248739
0.00230082
0.00218279
0.00209482
0.0020101
0.00191506
0.00180397
0.00167591
0.0015355
0.00139972
0.00133475
0.00177773
0.00825723
0.024343
0.00840888
0.0192332
0.0394363
0.0302368
0.0195657
0.0121831
0.00794064
0.0057199
0.00467268
0.00436595
0.00440299
0.00465457
0.00514535
0.00593214
0.00697478
0.00808045
0.0089571
0.00933969
0.00909761
0.00827757
0.00706556
0.00571454
0.00446039
0.00346056
0.00276724
0.0023471
0.00211381
0.00198943
0.00192169
0.00187176
0.00181794
0.00174997
0.00166386
0.00156019
0.00144662
0.00134901
0.0014253
0.00312456
0.00978224
0.0203601
0.00819825
0.0159484
0.0315838
0.0266487
0.0195385
0.0139769
0.0102859
0.0080297
0.00675471
0.00605253
0.00573398
0.00578419
0.00627163
0.00720001
0.00840127
0.00954714
0.0102672
0.0103039
0.00959627
0.00829364
0.00667218
0.0050577
0.00371968
0.00279106
0.00223391
0.00195468
0.00181433
0.0017448
0.00171064
0.00168327
0.00164803
0.00159728
0.00152749
0.00143971
0.00134705
0.0013017
0.00171662
0.00434216
0.0100879
0.0168687
0.00766275
0.0132639
0.0256639
0.0233446
0.0186875
0.0145832
0.0115887
0.0095448
0.00821138
0.00730218
0.00684237
0.00695754
0.00771028
0.00895561
0.0103299
0.0113685
0.0116793
0.0110986
0.00970227
0.00779926
0.00576974
0.0040281
0.00283628
0.00219639
0.00186559
0.00170138
0.00161833
0.00157569
0.00155321
0.00153248
0.00150398
0.00146203
0.00140395
0.00133198
0.00126339
0.00127623
0.00183007
0.00446715
0.00978682
0.0163407
0.00734017
0.0133467
0.0224038
0.022048
0.0177551
0.0143898
0.0118928
0.0100837
0.00876921
0.00791994
0.00777614
0.0084671
0.00984373
0.0114775
0.0128082
0.0133438
0.0128103
0.011276
0.00900003
0.00653221
0.00431776
0.00296615
0.00222974
0.00186367
0.00167865
0.0015781
0.00151721
0.00147704
0.00144904
0.00142264
0.00139165
0.00135239
0.00130432
0.0012526
0.00121926
0.00128484
0.00178365
0.00392494
0.0089355
0.0157201
0.00823044
0.0108738
0.011759
0.012921
0.0125516
0.0113741
0.0100748
0.00894716
0.00820551
0.00830814
0.00941651
0.0112709
0.0133045
0.0148635
0.0154317
0.0147629
0.0128535
0.010167
0.0070406
0.0046538
0.00314547
0.00236002
0.00197949
0.00178782
0.00167405
0.00159159
0.0015229
0.0014635
0.00141449
0.00137264
0.00133388
0.00129895
0.00127643
0.00128522
0.00135749
0.00155695
0.00209062
0.00380946
0.00905376
0.0138852
0.00862204
0.00354663
0.00482824
0.00600155
0.00660628
0.00728401
0.008806
0.0113211
0.014127
0.0164977
0.0178828
0.0179465
0.0166311
0.0141537
0.0106035
0.00733636
0.00484894
0.00334902
0.00259063
0.00224345
0.00207187
0.00196435
0.00187627
0.00179088
0.00170301
0.00161523
0.00153827
0.0014837
0.00145385
0.00146328
0.00153977
0.00171577
0.00201745
0.00248505
0.00326971
0.00490773
0.0102291
0.0136423
0.00883834
0.00444423
0.0062927
0.00810958
0.011026
0.0147091
0.0181581
0.0203767
0.0214001
0.021273
0.0200071
0.0174589
0.0139939
0.0103712
0.00713295
0.00486111
0.00356883
0.00296193
0.0026962
0.00256369
0.00247644
0.00240478
0.00233818
0.00227067
0.00219798
0.00212061
0.00204954
0.00200999
0.00201948
0.0021074
0.00231445
0.00268154
0.00323976
0.00402746
0.0051576
0.00694876
0.010498
0.0154628
0.00829611
0.0150799
0.0244485
0.0180782
0.014384
0.0170138
0.0207272
0.0228677
0.0235648
0.023085
0.0216979
0.0196408
0.0169785
0.0138152
0.0105291
0.0076533
0.00558379
0.0044089
0.00385399
0.00358958
0.00343039
0.00331134
0.00321844
0.00315236
0.0031131
0.0030948
0.00308628
0.00307698
0.00306834
0.00308314
0.00314956
0.00330119
0.00358019
0.00403382
0.00470844
0.0056507
0.0069246
0.00862638
0.0107819
0.0131346
0.00784232
0.0138115
0.0170518
0.0178812
0.0207821
0.0217138
0.0221335
0.0211382
0.0193255
0.017202
0.0150126
0.0128547
0.0107786
0.00887063
0.00726959
0.00610507
0.00538055
0.00493139
0.00463456
0.00441177
0.00423295
0.00409809
0.0040192
0.00400889
0.00407345
0.00420858
0.00439729
0.00461022
0.00480816
0.00496135
0.00511506
0.00532296
0.005632
0.00608506
0.00672805
0.00762028
0.00884051
0.0104682
0.0125898
0.013631
0.00852369
0.0121356
0.00890685
0.00881655
0.00933346
0.00977079
0.00918756
0.00810503
0.00692248
0.00582836
0.00488011
0.00408228
0.00343286
0.00293533
0.00259147
0.00238636
0.00228526
0.00225849
0.00226387
0.00229071
0.00234071
0.00241841
0.00252641
0.00266278
0.00282095
0.0029919
0.00316717
0.00334164
0.00351557
0.00369419
0.00387993
0.00408628
0.00432895
0.0046217
0.00497474
0.00539096
0.0058576
0.00634558
0.00688013
0.00770001
0.00790328
)
;

boundaryField
{
    floor
    {
        type            kqRWallFunction;
        value           nonuniform List<scalar> 
36
(
0.00358655
0.000792894
0.00162581
0.00165248
0.0015737
0.00144596
0.00128351
0.00113116
0.00099934
0.000887544
0.000792988
0.000713241
0.000645217
0.000586214
0.000533687
0.000484928
0.000436438
0.000398085
0.000326163
0.000326163
0.000524185
0.000678292
0.000822331
0.00116791
0.00200541
0.00185232
0.00358655
0.00429959
0.0039083
0.00358085
0.000792894
0.00358085
0.00253591
0.00538705
0.00403652
0.00534291
)
;
    }
    ceiling
    {
        type            kqRWallFunction;
        value           nonuniform List<scalar> 
43
(
0.0121356
0.00890685
0.00881655
0.00933346
0.00977079
0.00918756
0.00810503
0.00692248
0.00582836
0.00488011
0.00408228
0.00343286
0.00293533
0.00259147
0.00238636
0.00228526
0.00225849
0.00226387
0.00229071
0.00234071
0.00241841
0.00252641
0.00266278
0.00282095
0.0029919
0.00316717
0.00334164
0.00351557
0.00369419
0.00387993
0.00408628
0.00432895
0.0046217
0.00497474
0.00539096
0.0058576
0.00634558
0.00688013
0.00770001
0.00790328
0.0108738
0.011759
0.00444423
)
;
    }
    sWall
    {
        type            kqRWallFunction;
        value           nonuniform List<scalar> 9(0.0219185 0.0192332 0.0159484 0.0132639 0.0133467 0.0108738 0.0150799 0.0138115 0.0121356);
    }
    nWall
    {
        type            kqRWallFunction;
        value           nonuniform List<scalar> 
14
(
0.00185232
0.0026579
0.003677
0.00840888
0.00819825
0.00766275
0.00734017
0.00823044
0.00862204
0.00883834
0.00829611
0.00784232
0.00852369
0.00790328
)
;
    }
    sideWalls
    {
        type            empty;
    }
    glass1
    {
        type            kqRWallFunction;
        value           nonuniform List<scalar> 9(0.00158595 0.00340706 0.00549098 0.00797391 0.0108769 0.0141754 0.0179925 0.0216414 0.0228336);
    }
    glass2
    {
        type            kqRWallFunction;
        value           nonuniform List<scalar> 2(0.00622008 0.0081275);
    }
    sun
    {
        type            kqRWallFunction;
        value           nonuniform List<scalar> 
14
(
0.00158595
0.0018011
0.00178789
0.00194636
0.00209752
0.00223973
0.00237634
0.00251191
0.00265223
0.00280557
0.00295588
0.00310232
0.00325004
0.00341267
)
;
    }
    Table_master
    {
        type            kqRWallFunction;
        value           nonuniform List<scalar> 9(0.00266646 0.00201653 0.00157694 0.00127052 0.00105022 0.000887654 0.000765162 0.000672245 0.000603983);
    }
    Table_slave
    {
        type            kqRWallFunction;
        value           nonuniform List<scalar> 9(0.00345601 0.00285958 0.00243678 0.00211087 0.00185149 0.00163297 0.00143948 0.00125938 0.00107842);
    }
    inlet
    {
        type            turbulentIntensityKineticEnergyInlet;
        intensity       0.05;
        value           uniform 0.0009375;
    }
    outlet
    {
        type            zeroGradient;
    }
}


// ************************************************************************* //
