/*--------------------------------*- C++ -*----------------------------------*\
  =========                 |
  \\      /  F ield         | OpenFOAM: The Open Source CFD Toolbox
   \\    /   O peration     | Website:  https://openfoam.org
    \\  /    A nd           | Version:  6
     \\/     M anipulation  |
\*---------------------------------------------------------------------------*/
FoamFile
{
    version     2.0;
    format      ascii;
    class       volScalarField;
    location    "1730";
    object      epsilon;
}
// * * * * * * * * * * * * * * * * * * * * * * * * * * * * * * * * * * * * * //

dimensions      [0 2 -3 0 0 0 0];

internalField   nonuniform List<scalar> 
458
(
0.000432815
0.000557922
0.000596612
0.000686402
0.00077669
0.000869162
0.000968736
0.00107733
0.0011719
0.00123405
0.00124118
0.00117478
0.00102227
0.000744148
0.000324966
3.92317e-05
6.32035e-05
9.21062e-05
0.000104414
9.95887e-05
8.16123e-05
6.44029e-05
5.12203e-05
4.137e-05
3.39146e-05
2.81874e-05
2.37384e-05
2.02079e-05
1.73137e-05
1.48371e-05
1.26e-05
1.13839e-05
8.83717e-06
0.00106103
0.00158339
0.000518482
0.000502656
0.000518506
0.000550981
0.000606328
0.000688536
0.000779783
0.000854
0.000882086
0.000847843
0.000756911
0.000624011
0.000502025
0.000747391
0.000426783
0.000231797
3.82933e-05
7.53643e-05
9.274e-05
9.34241e-05
8.97252e-05
9.00287e-05
7.05555e-05
5.34903e-05
4.08038e-05
3.15346e-05
2.47392e-05
1.97213e-05
1.59665e-05
1.31677e-05
1.14057e-05
1.06885e-05
3.04907e-05
2.00753e-05
0.00190709
0.00384793
0.000603788
0.000458319
0.000466064
0.000508207
0.000580514
0.000683722
0.000797199
0.000884447
0.000918115
0.000888015
0.00080207
0.000667223
0.000517675
0.000416439
0.000353085
0.000381901
0.000139918
0.000139212
0.000125565
0.000111511
0.000103518
0.000198158
0.000132972
9.11304e-05
6.45232e-05
4.7284e-05
3.58113e-05
2.79858e-05
2.25637e-05
1.88675e-05
1.48279e-05
1.31278e-05
6.48768e-05
3.31339e-05
0.00306284
0.00799457
0.000903842
0.000438998
0.000429241
0.000481266
0.000574993
0.000717978
0.000862754
0.000958137
0.000989381
0.000953061
0.000855371
0.000703441
0.000548591
0.000432422
0.000365914
0.000380545
0.000583934
0.000375871
0.000245187
0.00017829
0.000140473
0.000122998
0.000283258
0.000218176
0.000180105
0.000155041
0.000135756
0.000118241
0.000103068
8.85074e-05
7.33076e-05
4.5397e-05
2.92902e-05
0.000114641
5.06237e-05
0.00464968
0.0144277
0.00174041
0.000470882
0.000395642
0.000451623
0.000588929
0.000832885
0.00101859
0.00111189
0.00112842
0.00106929
0.000937532
0.000753796
0.000564919
0.000420108
0.000331693
0.000302709
0.000303831
0.000253611
0.000209386
0.000175124
0.000146302
0.000122073
0.000113066
0.000103815
9.75381e-05
9.21928e-05
8.61967e-05
7.87665e-05
7.0882e-05
6.3154e-05
5.59005e-05
4.60275e-05
3.61888e-05
7.47584e-05
0.000114591
0.00012097
0.000143505
0.000184282
0.00687175
0.0217355
0.00400186
0.000790794
0.000465138
0.000474104
0.000700811
0.00112001
0.00130633
0.00136599
0.00134366
0.00124621
0.00106729
0.000825292
0.000577688
0.000388759
0.000278843
0.000238534
0.000228238
0.000218249
0.000201142
0.000176766
0.000149297
0.000123755
0.000107327
0.000100907
9.97464e-05
9.93427e-05
9.72051e-05
9.16665e-05
8.17115e-05
7.04482e-05
5.98031e-05
5.01444e-05
4.34374e-05
5.55247e-05
8.8348e-05
0.000106129
0.000206707
0.000205618
0.00965911
0.0261945
0.00879609
0.00280098
0.00145445
0.00114117
0.00148335
0.00172686
0.00178617
0.00174927
0.0016499
0.00148354
0.00123001
0.000908166
0.000588273
0.000355922
0.000234512
0.000200219
0.00020238
0.000203027
0.000190047
0.000166863
0.000141344
0.000120204
0.00010907
0.000108552
0.000113664
0.000120154
0.000125729
0.00012818
0.000124099
0.000111088
9.7485e-05
8.59293e-05
8.04411e-05
8.87181e-05
0.00012058
0.000176772
0.000327316
0.000344795
0.010447
0.0300972
0.0160954
0.00965296
0.00597052
0.00418104
0.00338395
0.00287628
0.00253837
0.00228136
0.00203923
0.00176106
0.00139725
0.000968404
0.000561376
0.000300494
0.0001904
0.0001744
0.000179653
0.000177137
0.00016222
0.000141969
0.000124128
0.000113535
0.000112228
0.000119061
0.000131176
0.00014686
0.000165745
0.000187737
0.000212035
0.00023294
0.000246003
0.000273113
0.000329066
0.000480057
0.000820478
0.00137761
0.00411015
0.0012819
0.00984346
0.0172559
0.0132404
0.00999026
0.00750815
0.00579407
0.00458983
0.00379095
0.00325128
0.00282384
0.00242695
0.00200644
0.00148384
0.000914079
0.000407055
0.000216102
0.000158896
0.000147551
0.000144476
0.000136951
0.000124615
0.000112498
0.000104974
0.000104108
0.000109949
0.000121519
0.000138067
0.000159895
0.000188367
0.000225724
0.000275039
0.00033993
0.000427243
0.000551962
0.000734054
0.00097678
0.00125104
0.00149865
0.00170332
0.00104491
0.00347934
0.00472069
0.0051232
0.00502813
0.00473286
0.00431958
0.0037832
0.0031579
0.00254758
0.00194821
0.00116384
0.000536608
0.00025457
0.000159701
0.000129175
0.000118204
0.000110936
0.000103121
9.54687e-05
8.99801e-05
8.84511e-05
9.13111e-05
9.81701e-05
0.000108624
0.000122675
0.000140904
0.000164559
0.000195765
0.000237991
0.000297011
0.000378473
0.00048861
0.000629983
0.000786506
0.000911385
0.000944895
0.000871291
0.000544328
0.00289513
0.00862055
0.00828162
0.00717247
0.00607465
0.00478908
0.00347805
0.00225668
0.00128283
0.000710031
0.000375255
0.000215424
0.000151279
0.000124191
0.000111111
0.000102223
9.42305e-05
8.70588e-05
8.17134e-05
7.89355e-05
7.90085e-05
8.20417e-05
8.79946e-05
9.7047e-05
0.00010972
0.000126921
0.000150043
0.000181157
0.000223223
0.000280012
0.000356652
0.000458343
0.000585914
0.000728744
0.000842214
0.000956472
0.000733731
0.000565822
0.00336792
0.00362378
0.00386704
0.00532551
0.00449769
0.00313021
0.00187945
0.00115783
0.000823476
0.000572161
0.000398395
0.000289998
0.000215275
0.000168096
0.000139731
0.00012116
0.000107475
9.65577e-05
8.81209e-05
8.27154e-05
8.07567e-05
8.22253e-05
8.66832e-05
9.3525e-05
0.000102673
0.000114262
0.000128638
0.000146388
0.000168466
0.000196516
0.000232034
0.000276356
0.000331643
0.000400578
0.00048615
0.000603778
0.00066073
0.000620969
0.000499704
0.000395334
)
;

boundaryField
{
    floor
    {
        Cmu             0.09;
        kappa           0.41;
        E               9.8;
        type            epsilonWallFunction;
        value           nonuniform List<scalar> 
36
(
0.000324966
3.92317e-05
6.32035e-05
9.21062e-05
0.000104414
9.95887e-05
8.16123e-05
6.44029e-05
5.12203e-05
4.137e-05
3.39146e-05
2.81874e-05
2.37384e-05
2.02079e-05
1.73137e-05
1.48371e-05
1.26e-05
1.13839e-05
8.83717e-06
8.83717e-06
2.00753e-05
3.31339e-05
5.06237e-05
0.00012097
0.000143505
0.000184282
0.000324966
0.000747391
0.000426783
0.000231797
3.92317e-05
0.000231797
3.82933e-05
0.000381901
0.000139918
0.000583934
)
;
    }
    ceiling
    {
        Cmu             0.09;
        kappa           0.41;
        E               9.8;
        type            epsilonWallFunction;
        value           nonuniform List<scalar> 
43
(
0.00336792
0.00362378
0.00386704
0.00532551
0.00449769
0.00313021
0.00187945
0.00115783
0.000823476
0.000572161
0.000398395
0.000289998
0.000215275
0.000168096
0.000139731
0.00012116
0.000107475
9.65577e-05
8.81209e-05
8.27154e-05
8.07567e-05
8.22253e-05
8.66832e-05
9.3525e-05
0.000102673
0.000114262
0.000128638
0.000146388
0.000168466
0.000196516
0.000232034
0.000276356
0.000331643
0.000400578
0.00048615
0.000603778
0.00066073
0.000620969
0.000499704
0.000395334
0.00984346
0.0172559
0.00289513
)
;
    }
    sWall
    {
        Cmu             0.09;
        kappa           0.41;
        E               9.8;
        type            epsilonWallFunction;
        value           uniform 0.00336792;
    }
    nWall
    {
        Cmu             0.09;
        kappa           0.41;
        E               9.8;
        type            epsilonWallFunction;
        value           nonuniform List<scalar> 6(0.000184282 0.000205618 0.000344795 0.000544328 0.000565822 0.000395334);
    }
    sideWalls
    {
        type            empty;
    }
    glass1
    {
        Cmu             0.09;
        kappa           0.41;
        E               9.8;
        type            epsilonWallFunction;
        value           nonuniform List<scalar> 9(0.000432815 0.00106103 0.00190709 0.00306284 0.00464968 0.00687175 0.00965911 0.010447 0.00984346);
    }
    glass2
    {
        Cmu             0.09;
        kappa           0.41;
        E               9.8;
        type            epsilonWallFunction;
        value           nonuniform List<scalar> 2(0.0012819 0.00104491);
    }
    sun
    {
        Cmu             0.09;
        kappa           0.41;
        E               9.8;
        type            epsilonWallFunction;
        value           nonuniform List<scalar> 
14
(
0.000432815
0.000557922
0.000596612
0.000686402
0.00077669
0.000869162
0.000968736
0.00107733
0.0011719
0.00123405
0.00124118
0.00117478
0.00102227
0.000744148
)
;
    }
    Table_master
    {
        Cmu             0.09;
        kappa           0.41;
        E               9.8;
        type            epsilonWallFunction;
        value           nonuniform List<scalar> 9(0.000198158 0.000132972 9.11304e-05 6.45232e-05 4.7284e-05 3.58113e-05 2.79858e-05 2.25637e-05 1.88675e-05);
    }
    Table_slave
    {
        Cmu             0.09;
        kappa           0.41;
        E               9.8;
        type            epsilonWallFunction;
        value           nonuniform List<scalar> 9(0.000283258 0.000218176 0.000180105 0.000155041 0.000135756 0.000118241 0.000103068 8.85074e-05 7.33076e-05);
    }
    inlet
    {
        type            turbulentMixingLengthDissipationRateInlet;
        mixingLength    0.01;
        phi             phi;
        k               k;
        value           uniform 0.000471672;
    }
    outlet
    {
        type            zeroGradient;
    }
}


// ************************************************************************* //
