/*--------------------------------*- C++ -*----------------------------------*\
  =========                 |
  \\      /  F ield         | OpenFOAM: The Open Source CFD Toolbox
   \\    /   O peration     | Website:  https://openfoam.org
    \\  /    A nd           | Version:  6
     \\/     M anipulation  |
\*---------------------------------------------------------------------------*/
FoamFile
{
    version     2.0;
    format      ascii;
    class       volScalarField;
    location    "1730";
    object      nut;
}
// * * * * * * * * * * * * * * * * * * * * * * * * * * * * * * * * * * * * * //

dimensions      [0 2 -1 0 0 0 0];

internalField   nonuniform List<scalar> 
458
(
0.00106941
0.00116387
0.00119017
0.00124711
0.00129955
0.00134921
0.00139888
0.00144931
0.00149053
0.00151643
0.00151934
0.00149175
0.00142419
0.00128114
0.000971981
0.000480387
0.000563152
0.000638471
0.00066573
0.000655313
0.00061324
0.000566692
0.00052504
0.00048896
0.000457623
0.000430259
0.000406314
0.000385081
0.000365742
0.000347399
0.00032898
0.000318035
0.000292292
0.00144196
0.0032419
0.00299019
0.00342619
0.00386088
0.00430804
0.00470928
0.00501955
0.0053382
0.00563641
0.00587557
0.00602082
0.00603438
0.00582447
0.00473378
0.001283
0.00106442
0.000868456
0.000476525
0.00113086
0.00164826
0.00204878
0.00217549
0.00158546
0.00133845
0.00117037
0.00104633
0.000951283
0.000875868
0.00081085
0.000749734
0.000688731
0.000634238
0.000588565
0.000719971
0.000384237
0.00175322
0.00435748
0.00359596
0.00438458
0.00471609
0.00494892
0.00512787
0.005293
0.00552269
0.00580173
0.00610665
0.00640557
0.00664184
0.00672475
0.00633666
0.00516445
0.00391405
0.00102572
0.000733956
0.00126653
0.00184306
0.00241654
0.00258043
0.000824231
0.000721603
0.000636209
0.000567044
0.00051123
0.000465999
0.000429231
0.000399498
0.000376372
0.000417093
0.000483051
0.000844738
0.000454084
0.00205315
0.00556626
0.00349822
0.0045428
0.00472448
0.00470677
0.00469027
0.00476953
0.00495626
0.0052322
0.00558288
0.00597424
0.00631734
0.00653338
0.00648486
0.00614955
0.00527791
0.00289756
0.00118168
0.00150487
0.00206897
0.00275977
0.00335869
0.00338833
0.00092848
0.000851101
0.000798399
0.0007595
0.000726604
0.000693906
0.000662856
0.000630045
0.000591691
0.000557322
0.000549171
0.00100686
0.000522994
0.00235968
0.00719277
0.00366953
0.0043126
0.00457225
0.00441806
0.00429261
0.0043647
0.00456183
0.00484888
0.00522692
0.00565602
0.00599222
0.0061599
0.00615613
0.00603891
0.00569099
0.00470589
0.00426526
0.00429643
0.00454714
0.00484582
0.00502917
0.00494686
0.00422081
0.0038475
0.00364172
0.0034943
0.00334511
0.00315293
0.00282619
0.00240533
0.00192654
0.0014654
0.00109902
0.00102384
0.000888853
0.000699204
0.000740174
0.000804525
0.00268782
0.00902562
0.00502601
0.0039931
0.00435235
0.00434391
0.00418398
0.00424392
0.00444489
0.0047319
0.00511529
0.00552668
0.00583792
0.00593784
0.00584412
0.00570969
0.00564929
0.00556825
0.00573607
0.00602713
0.00623149
0.00626828
0.00613144
0.00584445
0.00544345
0.00511767
0.0048639
0.00464022
0.00442062
0.00418743
0.00388626
0.00347336
0.00295111
0.00236038
0.00181367
0.00131498
0.0010808
0.000942868
0.00118735
0.000834447
0.00301086
0.0104109
0.00750103
0.00490873
0.00427166
0.00433353
0.00438935
0.00442098
0.00453432
0.00478712
0.00516431
0.00557213
0.00585766
0.00589014
0.00571189
0.00558306
0.00579803
0.00627364
0.00675783
0.0070313
0.00703239
0.00679875
0.00640245
0.00591998
0.00543932
0.00505246
0.0047595
0.00452195
0.00431409
0.00412742
0.0039576
0.00373543
0.0033703
0.00288251
0.00237578
0.00188898
0.00157135
0.00143952
0.00137217
0.000991361
0.0030906
0.009663
0.00820291
0.00688334
0.00587518
0.0054291
0.00501067
0.00472538
0.00471894
0.00495968
0.00534988
0.00575317
0.00599409
0.00594037
0.00572216
0.0057785
0.00639184
0.00689485
0.00715698
0.00714528
0.0068616
0.00637061
0.00576628
0.00515678
0.00465031
0.00429534
0.00405593
0.00388396
0.00375668
0.00367086
0.00363268
0.00363427
0.00353684
0.0032468
0.00296408
0.0028065
0.00287505
0.00303502
0.00360547
0.00153578
0.0030299
0.00365335
0.00403429
0.00424624
0.00427566
0.0042107
0.00421087
0.00438515
0.00474097
0.00519579
0.00566271
0.00603187
0.00615214
0.00594301
0.00588537
0.00619739
0.00655732
0.00668077
0.00659177
0.00627994
0.00575728
0.00511165
0.00446694
0.00393799
0.00357199
0.00333894
0.00318259
0.00306378
0.00296241
0.00286728
0.00276966
0.0026625
0.00256531
0.00248123
0.00242561
0.00239435
0.00233482
0.00221205
0.00206285
0.00143462
0.00133535
0.00234686
0.00322204
0.00390665
0.0045318
0.00514101
0.00562554
0.00595261
0.00616755
0.0062011
0.00600202
0.00575718
0.00575943
0.00586288
0.00578428
0.00555159
0.00518448
0.00469009
0.00412137
0.00356574
0.00312343
0.0028255
0.00264286
0.00253076
0.00245632
0.00240208
0.0023605
0.00232977
0.00231252
0.00231792
0.00233149
0.00234359
0.00234432
0.00230737
0.00219314
0.00199172
0.00174212
0.00115434
0.00201497
0.00395733
0.00507529
0.00580067
0.00636568
0.00641576
0.00608758
0.00575713
0.00547376
0.00492889
0.00454075
0.00445088
0.00438968
0.00421797
0.00395912
0.00363827
0.00326203
0.00286607
0.00250918
0.00223151
0.00204006
0.00192974
0.00187803
0.00186692
0.00188521
0.00192584
0.00198268
0.0020484
0.00212538
0.00221372
0.00230823
0.00240107
0.00247663
0.00251445
0.0024794
0.00244886
0.00225468
0.00116933
0.00211917
0.00217153
0.00221907
0.00246887
0.00233368
0.00206809
0.00174471
0.00148454
0.00132514
0.00117368
0.00104028
0.000935786
0.000847311
0.000780245
0.000733629
0.00069957
0.000672173
0.000648596
0.000629127
0.00061599
0.000611089
0.000614771
0.000625686
0.000641733
0.000662008
0.000686035
0.000713677
0.000745098
0.000780817
0.000821948
0.000868752
0.000920877
0.000978593
0.00104218
0.00111165
0.00119492
0.00123136
0.00120615
0.00112189
0.00103761
)
;

boundaryField
{
    floor
    {
        type            nutkWallFunction;
        Cmu             0.09;
        kappa           0.41;
        E               9.8;
        value           nonuniform List<scalar> 
36
(
0.000117416
5.72035e-05
6.77268e-05
7.71386e-05
8.05109e-05
7.9224e-05
7.40015e-05
6.81723e-05
6.29065e-05
5.83034e-05
5.42708e-05
5.07213e-05
4.75919e-05
4.47971e-05
4.22345e-05
3.97875e-05
3.73136e-05
3.5835e-05
3.23302e-05
3.23301e-05
4.46849e-05
5.38125e-05
6.26457e-05
8.46288e-05
8.96382e-05
9.74411e-05
0.000117416
0.000153523
0.000128269
0.000105119
5.72034e-05
0.000105119
5.67071e-05
0.000123739
8.88805e-05
0.000141883
)
;
    }
    ceiling
    {
        type            nutkWallFunction;
        Cmu             0.09;
        kappa           0.41;
        E               9.8;
        value           nonuniform List<scalar> 
43
(
0.000246191
0.000251845
0.000256969
0.000283773
0.000269374
0.000240768
0.000205377
0.000176379
0.000158335
0.000140962
0.000125448
0.000113137
0.000102588
9.4506e-05
8.88403e-05
8.46739e-05
8.1305e-05
7.83925e-05
7.59779e-05
7.43436e-05
7.37327e-05
7.41917e-05
7.55502e-05
7.75423e-05
8.00508e-05
8.30115e-05
8.64025e-05
9.02381e-05
9.45753e-05
9.95408e-05
0.000105156
0.000111368
0.000118199
0.000125672
0.000133777
0.000143417
0.000147612
0.000144712
0.000134967
0.000125137
0.000343193
0.000407604
0.000234816
)
;
    }
    sWall
    {
        type            nutkWallFunction;
        Cmu             0.09;
        kappa           0.41;
        E               9.8;
        value           uniform 0.000246258;
    }
    nWall
    {
        type            nutkWallFunction;
        Cmu             0.09;
        kappa           0.41;
        E               9.8;
        value           nonuniform List<scalar> 6(9.74417e-05 0.000101045 0.000119708 0.000138739 0.000140474 0.000125145);
    }
    sideWalls
    {
        type            empty;
    }
    glass1
    {
        type            nutkWallFunction;
        Cmu             0.09;
        kappa           0.41;
        E               9.8;
        value           nonuniform List<scalar> 9(0.00012896 0.000171808 0.000206643 0.000239572 0.000272693 0.000307648 0.000341625 0.000349962 0.000343641);
    }
    glass2
    {
        type            nutkWallFunction;
        Cmu             0.09;
        kappa           0.41;
        E               9.8;
        value           nonuniform List<scalar> 2(0.000182232 0.000170841);
    }
    sun
    {
        type            nutkWallFunction;
        Cmu             0.09;
        kappa           0.41;
        E               9.8;
        value           nonuniform List<scalar> 
14
(
0.000128856
0.000139825
0.000142862
0.000149412
0.000155415
0.000161073
0.000166711
0.000172411
0.000177055
0.000179965
0.000180292
0.000177192
0.000169573
0.00015331
)
;
    }
    Table_master
    {
        type            nutkWallFunction;
        Cmu             0.09;
        kappa           0.41;
        E               9.8;
        value           nonuniform List<scalar> 9(9.98145e-05 8.73732e-05 7.68605e-05 6.82211e-05 6.11555e-05 5.53598e-05 5.05968e-05 4.67076e-05 4.36571e-05);
    }
    Table_slave
    {
        type            nutkWallFunction;
        Cmu             0.09;
        kappa           0.41;
        E               9.8;
        value           nonuniform List<scalar> 9(0.000112268 0.000103041 9.67012e-05 9.19901e-05 8.79839e-05 8.39803e-05 8.01575e-05 7.60945e-05 7.13126e-05);
    }
    inlet
    {
        type            calculated;
        value           uniform 0.000167705;
    }
    outlet
    {
        type            calculated;
        value           nonuniform List<scalar> 2(0.00211917 0.00217153);
    }
}


// ************************************************************************* //
