/*--------------------------------*- C++ -*----------------------------------*\
  =========                 |
  \\      /  F ield         | OpenFOAM: The Open Source CFD Toolbox
   \\    /   O peration     | Website:  https://openfoam.org
    \\  /    A nd           | Version:  6
     \\/     M anipulation  |
\*---------------------------------------------------------------------------*/
FoamFile
{
    version     2.0;
    format      ascii;
    class       volScalarField;
    location    "16600";
    object      alphat;
}
// * * * * * * * * * * * * * * * * * * * * * * * * * * * * * * * * * * * * * //

dimensions      [1 -1 -1 0 0 0 0];

internalField   nonuniform List<scalar> 
778
(
0.00104097
0.00111054
0.00110657
0.00115464
0.00119869
0.0012387
0.00127595
0.00131186
0.00134801
0.00138642
0.00142304
0.00145781
0.00149206
0.0015289
0.00156734
0.000736868
0.00105522
0.00106373
0.00103793
0.000994846
0.000937344
0.000880061
0.000827271
0.000779653
0.000736942
0.000698881
0.000664696
0.000633559
0.0006045
0.000576222
0.000546655
0.000522117
0.000472592
0.00152463
0.00300722
0.00263923
0.00304624
0.00334163
0.00365485
0.00396734
0.00425535
0.00448718
0.00462211
0.00470143
0.00466874
0.00443585
0.00385904
0.00281852
0.00171605
0.00163618
0.00156619
0.00131862
0.00224604
0.00311266
0.00362419
0.00364784
0.00287947
0.00246252
0.00217358
0.00195442
0.00178017
0.00163149
0.00149999
0.00137761
0.00125788
0.00115042
0.00105774
0.00119171
0.000599136
0.00193408
0.00419862
0.0031135
0.0044531
0.00497572
0.00541808
0.0058199
0.00617358
0.00647321
0.00670805
0.00693562
0.007175
0.00739488
0.0075256
0.00743853
0.00681073
0.00498155
0.00192117
0.0016638
0.00355992
0.00496728
0.00563211
0.00512106
0.00135127
0.00117489
0.00103889
0.000932517
0.00084789
0.000779589
0.000723874
0.000678546
0.000643196
0.000707243
0.000832013
0.00131813
0.000681572
0.002329
0.00565805
0.00297922
0.00500694
0.00578039
0.00619427
0.00649862
0.00672381
0.00689193
0.00702821
0.00722207
0.00754951
0.00802719
0.0086279
0.009232
0.00952997
0.00894962
0.00667878
0.00191375
0.00443234
0.00659559
0.00769373
0.00796351
0.00679725
0.00153907
0.00139976
0.00129193
0.0012023
0.00112594
0.00105738
0.000992749
0.000928553
0.000859197
0.000802826
0.000832469
0.00142798
0.000750283
0.00271823
0.00748992
0.0030055
0.0047598
0.00594881
0.00630145
0.00642934
0.00643413
0.0063702
0.00631371
0.00639497
0.00671305
0.00729656
0.00812301
0.00908211
0.00996646
0.0105284
0.0105234
0.00944565
0.00961234
0.00983395
0.00986504
0.00966382
0.00904424
0.00719663
0.00621583
0.00554415
0.0049981
0.00446299
0.00394485
0.00343801
0.00293187
0.00241195
0.0018525
0.00141332
0.00141322
0.00111755
0.000895121
0.00119224
0.00113529
0.00310114
0.00953999
0.00353793
0.00401389
0.00569965
0.00609067
0.00605891
0.00584046
0.0055285
0.00527138
0.00526578
0.00559881
0.00626325
0.00722097
0.00834287
0.00946486
0.0104206
0.0110322
0.0111449
0.0110344
0.0108395
0.0105619
0.0102046
0.00974974
0.00908628
0.00844735
0.00786744
0.00730647
0.00670116
0.00605512
0.00536529
0.00462579
0.00383199
0.00298971
0.00222658
0.00167169
0.00129769
0.00146733
0.00256442
0.00135473
0.00349188
0.0114352
0.00471419
0.00328821
0.00512147
0.00576105
0.00568926
0.00533577
0.0048235
0.0043732
0.00436038
0.00478063
0.00554068
0.00661069
0.00782938
0.00903707
0.0100776
0.0108238
0.011168
0.0111429
0.0108989
0.0105285
0.0101038
0.00967997
0.00926998
0.00889385
0.00854054
0.00816303
0.00770726
0.00715895
0.00651001
0.00575745
0.00490432
0.00397218
0.00306001
0.00220898
0.00162587
0.00146233
0.00261188
0.00160253
0.00382763
0.0128682
0.00642665
0.00313035
0.00405755
0.00510793
0.0052533
0.00496236
0.00435795
0.00374459
0.00388361
0.0044393
0.00528913
0.00639161
0.00765715
0.00892115
0.0100003
0.0107508
0.0110926
0.0110494
0.010734
0.0102683
0.00976698
0.00932226
0.00897937
0.00873443
0.00854339
0.00833533
0.00804573
0.00764051
0.00710382
0.00643266
0.00563381
0.00473083
0.0037904
0.00283491
0.001974
0.00132925
0.00386496
0.00212255
0.00392889
0.0121735
0.00794972
0.00404576
0.00274966
0.00337157
0.00394523
0.00399245
0.00352497
0.00342546
0.00378118
0.00443446
0.00535352
0.00652317
0.00785002
0.00915299
0.0102278
0.0109195
0.0111627
0.0109963
0.0105385
0.009938
0.00934224
0.00886687
0.00856512
0.00841709
0.00835015
0.00827037
0.00810399
0.00781134
0.00737679
0.00679896
0.00608572
0.005256
0.00434329
0.00331326
0.00190274
0.00168671
0.00614171
0.00238785
0.00384946
0.00981146
0.00820738
0.00555195
0.00366653
0.00283927
0.00269032
0.00281762
0.00305365
0.00343008
0.00396461
0.0047002
0.00570074
0.00696332
0.00836365
0.00968532
0.010703
0.0112623
0.0113193
0.010942
0.0102796
0.00951821
0.00883896
0.00837351
0.00816018
0.0081356
0.00818247
0.00818204
0.00807473
0.00783809
0.00746479
0.00695486
0.00631294
0.00554355
0.00462259
0.00332712
0.00147884
0.00297838
0.00587736
0.00243991
0.0036059
0.00838491
0.00793391
0.00635208
0.00488871
0.00393553
0.00346425
0.00335787
0.00355329
0.00391325
0.00443649
0.0052141
0.00632112
0.00770794
0.0091814
0.0104751
0.01135
0.0116716
0.0114375
0.0107644
0.00985419
0.00894436
0.00825317
0.0079058
0.00786586
0.00798112
0.00809784
0.00809994
0.00798693
0.00775798
0.00740884
0.00693548
0.00633064
0.00556294
0.00450649
0.00293661
0.00160232
0.00322577
0.00655966
0.00247488
0.00328332
0.00755978
0.00765248
0.00672288
0.0057194
0.00496364
0.00451847
0.00435868
0.0043992
0.00461733
0.00509896
0.00596984
0.00725302
0.00879246
0.010299
0.0114615
0.0120537
0.0119938
0.0113503
0.0103127
0.00916123
0.00819977
0.00765352
0.00754372
0.00764189
0.00779745
0.00789868
0.00787029
0.00773837
0.00750559
0.00716555
0.00670522
0.00608237
0.00518646
0.00377516
0.00218994
0.00189192
0.00377887
0.00659056
0.00259099
0.0029938
0.00676212
0.00730647
0.00686743
0.00622362
0.00568246
0.00532236
0.00514657
0.00509524
0.00528254
0.0058956
0.0070367
0.00859357
0.0102633
0.0116721
0.012509
0.0126145
0.0120036
0.0108527
0.00944994
0.00818517
0.00736946
0.00700749
0.0069669
0.00708247
0.00723298
0.00732484
0.00729465
0.00715854
0.00691927
0.00656796
0.00607204
0.00531814
0.00404902
0.00242669
0.00179177
0.00241679
0.00422426
0.00657621
0.00247942
0.00300377
0.00671225
0.00746479
0.00694974
0.00642873
0.00600195
0.00569429
0.00549597
0.00548997
0.00594389
0.00702689
0.00864731
0.010477
0.0120909
0.0131129
0.0133231
0.0127027
0.0114028
0.00975786
0.00816602
0.00700701
0.0063185
0.00600028
0.0059421
0.00603503
0.00617151
0.00625626
0.00622223
0.00606692
0.00579881
0.00541204
0.00486225
0.00400907
0.00277196
0.00186021
0.00200184
0.0029554
0.00433565
0.00543304
0.00234696
0.00270981
0.00282046
0.00416498
0.00489673
0.00512429
0.00512968
0.00508233
0.00517985
0.00581123
0.00715747
0.00905541
0.0111074
0.0128635
0.0139459
0.0141318
0.0133802
0.0118799
0.00992623
0.00806389
0.00659969
0.00561263
0.00505107
0.00480641
0.00475334
0.00479406
0.00484823
0.0048444
0.00473526
0.00450804
0.00419338
0.00381496
0.00337805
0.00284991
0.00225063
0.00191554
0.00225456
0.00322867
0.0044435
0.00534317
0.00227721
0.00096357
0.00173749
0.00266753
0.00341562
0.00428482
0.00575322
0.00791397
0.0103146
0.0125039
0.0141437
0.0150006
0.0149181
0.0138968
0.0120466
0.00984823
0.00776608
0.00611004
0.00500186
0.00439762
0.00411118
0.00398214
0.00392019
0.00387229
0.00379673
0.00366254
0.00346506
0.00322331
0.00298137
0.00277229
0.00260637
0.00247161
0.00235989
0.00234241
0.00264512
0.00349265
0.0048144
0.00596406
0.00243639
0.00178738
0.00247273
0.00360064
0.00561095
0.00833025
0.0110494
0.013148
0.0146638
0.0155872
0.0158522
0.0153355
0.0139106
0.0117912
0.00938157
0.00716029
0.00549023
0.00450615
0.00403223
0.00382171
0.00372701
0.00367968
0.00364266
0.00358956
0.00350268
0.00338041
0.00324153
0.00311514
0.0030255
0.00297988
0.00297229
0.00299486
0.0030543
0.00319116
0.00350555
0.00421094
0.00583894
0.00643561
0.00253298
0.00323738
0.00786881
0.00726718
0.00650581
0.00825372
0.010979
0.0132689
0.0148105
0.0156242
0.0158281
0.0155227
0.0146568
0.0131677
0.0110975
0.00871767
0.00654106
0.00505435
0.00428563
0.00395236
0.00382457
0.00379297
0.00380635
0.00383254
0.00384718
0.00383532
0.00379568
0.0037408
0.00368948
0.00365626
0.0036474
0.00366549
0.00371168
0.00379367
0.00393347
0.00417548
0.00459974
0.00537844
0.00726536
0.00735663
0.00261315
0.00309492
0.00598326
0.0077324
0.00989695
0.0109828
0.0120939
0.0127345
0.0128822
0.012632
0.0120507
0.0111615
0.00996432
0.00849853
0.00692373
0.00551389
0.00449553
0.00390469
0.00360758
0.00348648
0.00347579
0.00353622
0.00363577
0.0037445
0.00383752
0.00390083
0.00393491
0.00395174
0.00396612
0.00398742
0.00401793
0.0040594
0.00411983
0.00421926
0.00439007
0.00467083
0.00510081
0.00574011
0.00702731
0.00772717
0.00266956
0.00289524
0.0024811
0.00246878
0.00254072
0.00260002
0.00252224
0.0023725
0.00219922
0.00202657
0.00186233
0.00170684
0.00156072
0.00143018
0.00132752
0.00126458
0.00123701
0.00123137
0.00123942
0.00125547
0.00127568
0.00129745
0.00131907
0.00133971
0.00135924
0.00137826
0.00139786
0.00141941
0.00144442
0.00147455
0.00151207
0.00156039
0.00162432
0.00170925
0.00181898
0.00195352
0.00210928
0.00228174
0.0024665
0.00265064
0.0024772
)
;

boundaryField
{
    floor
    {
        type            compressible::alphatWallFunction;
        Prt             0.85;
        value           nonuniform List<scalar> 
36
(
0.000219885
0.000104489
0.000149915
0.000151104
0.000147494
0.000141438
0.00013331
0.000125154
0.000117583
0.000110704
0.000104491
9.89183e-05
9.38819e-05
8.92672e-05
8.49356e-05
8.06958e-05
7.62353e-05
7.2511e-05
6.49272e-05
6.49264e-05
8.4134e-05
9.63725e-05
0.000106436
0.000127305
0.000168946
0.000161072
0.000219882
0.000239678
0.000229069
0.000219727
0.000104488
0.000219724
0.000186284
0.000266672
0.000232735
0.000265701
)
;
    }
    ceiling
    {
        type            compressible::alphatWallFunction;
        Prt             0.85;
        value           nonuniform List<scalar> 
43
(
0.000391242
0.000338958
0.000337394
0.00034655
0.000354084
0.000344244
0.00032518
0.000302947
0.000280603
0.000259157
0.000238666
0.000219224
0.000201682
0.00018775
0.000179133
0.000175339
0.000174554
0.000175652
0.000177853
0.000180629
0.000183616
0.000186582
0.000189408
0.000192078
0.000194671
0.000197334
0.000200252
0.000203626
0.000207674
0.000212689
0.000219113
0.000227567
0.000238748
0.00025314
0.000270715
0.000290964
0.000313242
0.000336931
0.000360356
0.000338318
0.000368261
0.000382169
0.000248616
)
;
    }
    sWall
    {
        type            compressible::alphatWallFunction;
        Prt             0.85;
        value           nonuniform List<scalar> 9(0.000507604 0.000477892 0.000438225 0.000402288 0.00040352 0.000366686 0.000431907 0.000414293 0.000389491);
    }
    nWall
    {
        type            compressible::alphatWallFunction;
        Prt             0.85;
        value           nonuniform List<scalar> 
14
(
0.000160624
0.000190738
0.000224091
0.000333145
0.000337599
0.000352097
0.000337588
0.00032092
0.000312293
0.000332987
0.000344964
0.000355051
0.000362024
0.000337625
)
;
    }
    sideWalls
    {
        type            empty;
    }
    glass1
    {
        type            compressible::alphatWallFunction;
        Prt             0.85;
        value           nonuniform List<scalar> 9(0.000143925 0.00020913 0.000262683 0.000313287 0.000362356 0.000409975 0.000457981 0.000498839 0.00051121);
    }
    glass2
    {
        type            compressible::alphatWallFunction;
        Prt             0.85;
        value           nonuniform List<scalar> 2(0.000290132 0.000324093);
    }
    sun
    {
        type            compressible::alphatWallFunction;
        Prt             0.85;
        value           nonuniform List<scalar> 
14
(
0.000147959
0.000157646
0.000157092
0.000163764
0.000169851
0.000175358
0.000180467
0.000185375
0.000190301
0.000195519
0.000200478
0.000205174
0.000209788
0.000214736
)
;
    }
    Table_master
    {
        type            compressible::alphatWallFunction;
        Prt             0.85;
        value           nonuniform List<scalar> 9(0.000191 0.000166814 0.000147882 0.000132874 0.00012079 0.000110933 0.000102816 9.61566e-05 9.09254e-05);
    }
    Table_slave
    {
        type            compressible::alphatWallFunction;
        Prt             0.85;
        value           nonuniform List<scalar> 9(0.000216367 0.000197588 0.00018291 0.000170603 0.000160034 0.000150476 0.000141398 0.000132314 0.000122415);
    }
    inlet
    {
        type            fixedValue;
        value           uniform 1.94e-05;
    }
    outlet
    {
        type            zeroGradient;
    }
}


// ************************************************************************* //
