/*--------------------------------*- C++ -*----------------------------------*\
  =========                 |
  \\      /  F ield         | OpenFOAM: The Open Source CFD Toolbox
   \\    /   O peration     | Website:  https://openfoam.org
    \\  /    A nd           | Version:  6
     \\/     M anipulation  |
\*---------------------------------------------------------------------------*/
FoamFile
{
    version     2.0;
    format      ascii;
    class       volScalarField;
    location    "16600";
    object      epsilon;
}
// * * * * * * * * * * * * * * * * * * * * * * * * * * * * * * * * * * * * * //

dimensions      [0 2 -3 0 0 0 0];

internalField   nonuniform List<scalar> 
778
(
0.000253113
0.000306356
0.000303035
0.000344245
0.000385152
0.000425003
0.00046449
0.000504799
0.000547662
0.000595796
0.000644223
0.000692565
0.000742471
0.000798749
0.000860436
8.94743e-05
0.000262418
0.000268795
0.000249712
0.00021989
0.00018393
0.000152235
0.000126456
0.000105857
8.93994e-05
7.62546e-05
6.56066e-05
5.68147e-05
4.93527e-05
4.2748e-05
3.65018e-05
3.18063e-05
2.35942e-05
0.000796959
0.00144319
0.000287032
0.000259659
0.000261771
0.000267753
0.000276657
0.000290097
0.000310362
0.000340575
0.000379784
0.00043088
0.000499226
0.000600377
0.00078545
0.001129
0.000978459
0.000858156
0.000512032
0.000369414
0.000294068
0.000242699
0.00020386
0.00018668
0.000154549
0.000124909
0.000100635
8.14443e-05
6.64923e-05
5.47952e-05
4.56092e-05
3.86888e-05
3.44997e-05
3.27375e-05
6.57827e-05
4.80667e-05
0.00163052
0.00407902
0.000407426
0.000242992
0.000229176
0.000231092
0.00023831
0.000250583
0.00026849
0.000292757
0.00032487
0.000366906
0.000421241
0.000494891
0.000601226
0.000724449
0.000829561
0.00158358
0.00102832
0.000512434
0.000367713
0.000294228
0.00026197
0.000550834
0.000362071
0.00025033
0.000181044
0.000136093
0.000105785
8.46874e-05
6.97547e-05
5.94123e-05
4.50969e-05
3.79486e-05
0.000108283
7.07576e-05
0.00285328
0.00877032
0.000709897
0.000240779
0.000202541
0.000200076
0.000203245
0.000209869
0.000220682
0.000237593
0.000263268
0.000299982
0.000349141
0.00041221
0.000487847
0.000560043
0.000612293
0.000824358
0.00156497
0.000729057
0.000459827
0.000358308
0.000301909
0.00029179
0.000813902
0.000612289
0.000481416
0.000388011
0.000318677
0.000263937
0.000218437
0.000178742
0.000141607
8.3626e-05
5.47737e-05
0.000148958
9.43842e-05
0.00454555
0.0158274
0.00134634
0.000258382
0.000175781
0.000166838
0.000165842
0.000167812
0.00017397
0.000187471
0.000211703
0.000248349
0.000297697
0.000359145
0.000427536
0.000488894
0.000528339
0.000582377
0.000627486
0.000483208
0.000393529
0.00033107
0.000282314
0.000248616
0.000247803
0.000226723
0.000202868
0.000180996
0.000162621
0.000146465
0.000131801
0.000118214
0.000105056
8.44202e-05
6.40612e-05
0.000105246
0.000138795
0.000160267
0.00037868
0.000327257
0.00676287
0.0248789
0.00255343
0.000318087
0.000155571
0.000137099
0.000132156
0.000130718
0.000134482
0.000148574
0.000176718
0.000218051
0.000270685
0.000333863
0.000401362
0.000462219
0.000502644
0.000521468
0.000504689
0.000438231
0.000373845
0.000315677
0.00026475
0.000223373
0.000193268
0.00016961
0.0001508
0.000135622
0.000123293
0.000112742
0.000103281
9.45153e-05
8.6077e-05
7.58926e-05
6.52446e-05
7.75217e-05
9.96532e-05
0.000214957
0.00109898
0.000556175
0.00967105
0.0336384
0.00458378
0.000464963
0.000150856
0.000116362
0.000107107
0.0001033
0.000107094
0.000127941
0.000166149
0.000215866
0.000273176
0.000339755
0.000408878
0.00046995
0.000509731
0.000520141
0.000494142
0.000437555
0.000371825
0.000307476
0.000250534
0.000204414
0.000169725
0.000144546
0.000126329
0.000112751
0.000102298
9.37231e-05
8.62178e-05
7.93283e-05
7.27847e-05
6.61342e-05
6.02687e-05
6.35912e-05
7.67377e-05
0.000179514
0.00166017
0.000920478
0.0127577
0.0404087
0.00749037
0.000871143
0.000194236
0.000115371
9.73875e-05
9.14628e-05
9.86388e-05
0.000137727
0.000189305
0.000246234
0.00030691
0.000373529
0.000444348
0.00050758
0.000546959
0.000550613
0.000515492
0.000451436
0.000375446
0.000300914
0.00023644
0.00018593
0.000149297
0.000123984
0.000106733
9.46041e-05
8.57756e-05
7.88381e-05
7.29136e-05
6.75268e-05
6.2456e-05
5.76526e-05
5.39027e-05
5.54246e-05
7.0436e-05
0.000379473
0.00593317
0.00214242
0.0138265
0.0414613
0.0139332
0.00316283
0.000629554
0.00020787
0.000132622
0.000115964
0.0001424
0.000192878
0.000249257
0.000306366
0.000367221
0.000436408
0.000510766
0.00057538
0.000610557
0.000602839
0.000551887
0.000470758
0.000378342
0.000290813
0.000218195
0.000163995
0.000126783
0.00010264
8.7336e-05
7.74027e-05
7.07289e-05
6.57309e-05
6.15163e-05
5.76514e-05
5.39785e-05
5.05831e-05
4.82209e-05
5.11973e-05
9.65266e-05
0.00117843
0.016065
0.00305309
0.0130038
0.0283724
0.0144158
0.00572521
0.00210298
0.00083384
0.000413309
0.000276672
0.000278811
0.000314424
0.000355959
0.000401618
0.000458511
0.000530844
0.000609936
0.000673872
0.000698458
0.000670271
0.000593414
0.000486332
0.000372386
0.000270546
0.000191104
0.000135785
0.000100738
7.99523e-05
6.8046e-05
6.12711e-05
5.7195e-05
5.42513e-05
5.16935e-05
4.92199e-05
4.6782e-05
4.46066e-05
4.38131e-05
5.20777e-05
0.000186098
0.00333112
0.0124216
0.00326012
0.0106895
0.0193591
0.012039
0.00629923
0.00317321
0.00167368
0.000985957
0.000678421
0.000559545
0.000516972
0.000510161
0.00053134
0.000583797
0.000663106
0.000747934
0.000805384
0.000807247
0.000743661
0.000627392
0.00048543
0.000347137
0.000233383
0.000152526
0.000101894
7.36747e-05
5.8901e-05
5.14348e-05
4.80226e-05
4.62332e-05
4.492e-05
4.36183e-05
4.21929e-05
4.07509e-05
3.98732e-05
4.18836e-05
6.01684e-05
0.000235702
0.00249773
0.0112877
0.00340266
0.00807277
0.0137712
0.00969247
0.00593273
0.00356878
0.00222658
0.00148997
0.00109214
0.000868613
0.000743066
0.000685612
0.000690197
0.000751178
0.000845953
0.000933629
0.000969376
0.000926163
0.000804955
0.00063388
0.000451212
0.000292489
0.000177238
0.000107106
6.95304e-05
5.25336e-05
4.44015e-05
4.05937e-05
3.92069e-05
3.86246e-05
3.81734e-05
3.75823e-05
3.68326e-05
3.62937e-05
3.75213e-05
4.64748e-05
9.35212e-05
0.000357153
0.00227378
0.00891454
0.00389266
0.00612436
0.0101685
0.00779178
0.00531256
0.00356999
0.00246885
0.00178762
0.00136787
0.00109261
0.00092578
0.000859236
0.000887366
0.000984535
0.0011001
0.0011722
0.00115175
0.001027
0.000820822
0.000584932
0.000367588
0.00020806
0.000114463
7.20719e-05
5.21807e-05
4.27175e-05
3.79809e-05
3.5707e-05
3.49207e-05
3.46357e-05
3.44285e-05
3.41509e-05
3.39906e-05
3.51146e-05
4.24135e-05
7.71078e-05
0.000221383
0.000706598
0.0024454
0.00786214
0.00339686
0.00618208
0.00781472
0.00680613
0.00474033
0.00336607
0.00246261
0.00186582
0.00146234
0.00119451
0.00106457
0.00107094
0.00118228
0.00133311
0.00144234
0.00144231
0.00130228
0.00105083
0.000740704
0.000455719
0.000237749
0.000130983
8.17319e-05
5.97245e-05
4.87594e-05
4.25751e-05
3.88394e-05
3.66959e-05
3.57379e-05
3.53389e-05
3.51739e-05
3.52134e-05
3.60228e-05
4.03602e-05
5.96879e-05
0.000137636
0.000401927
0.00112981
0.00285004
0.00592865
0.00289004
0.00454556
0.00511567
0.00418615
0.00336252
0.00264036
0.00207064
0.00164945
0.00136207
0.00124477
0.00130073
0.00148
0.00169115
0.00183084
0.00182301
0.00164154
0.00130329
0.000908587
0.000518861
0.00027835
0.000155181
0.00010194
7.8589e-05
6.65186e-05
5.86943e-05
5.29729e-05
4.88259e-05
4.61676e-05
4.48977e-05
4.47189e-05
4.52442e-05
4.65152e-05
4.93623e-05
5.74378e-05
8.41255e-05
0.000173059
0.000443623
0.00114944
0.00272862
0.00551343
0.00265137
0.00139852
0.0014291
0.00143194
0.00135363
0.00131189
0.00142275
0.00170718
0.00204425
0.00231064
0.00241271
0.00229934
0.00198557
0.00153473
0.000981405
0.000568475
0.000312616
0.000187953
0.000135295
0.000112986
0.000100972
9.22952e-05
8.50261e-05
7.89853e-05
7.4558e-05
7.21952e-05
7.20979e-05
7.44766e-05
7.88463e-05
8.50745e-05
9.36574e-05
0.000107436
0.000136613
0.000211717
0.000415112
0.00094592
0.00222826
0.00494324
0.00325935
0.00118792
0.00171602
0.00195399
0.00230982
0.00275625
0.00316178
0.00334285
0.00331163
0.00309167
0.00270307
0.00213432
0.00151568
0.000980127
0.000576917
0.000343921
0.000233919
0.000189243
0.000170267
0.000159651
0.000151524
0.000144363
0.000138173
0.000133631
0.000131712
0.00013338
0.000139319
0.000149679
0.000164767
0.000184028
0.00020739
0.000236565
0.000278632
0.000353764
0.000513358
0.000904508
0.00231702
0.00411199
0.0036471
0.00741273
0.00807562
0.00481387
0.00340591
0.00373847
0.00414661
0.00415681
0.00394395
0.00358743
0.00313306
0.00262843
0.00208725
0.00153803
0.0010511
0.000685271
0.000461359
0.000354056
0.000309807
0.000291604
0.000282806
0.000277217
0.000272297
0.000267056
0.000261674
0.000257408
0.000256229
0.000260175
0.00027079
0.000289084
0.00031593
0.000352719
0.000401565
0.000466957
0.000559837
0.000705676
0.000954962
0.00145806
0.00328691
0.00448404
0.0040012
0.00650049
0.00513273
0.00436272
0.00461955
0.00454353
0.00427761
0.00369722
0.00304986
0.00246293
0.00196936
0.00156635
0.0012438
0.000991541
0.000803088
0.000668397
0.000575614
0.000517606
0.000484935
0.000470057
0.000467671
0.000473554
0.000484097
0.000496429
0.000508806
0.000520916
0.000533926
0.000550279
0.000573494
0.000608111
0.000659811
0.000735911
0.000846324
0.00100514
0.00123246
0.00155717
0.00202421
0.00270962
0.00412057
0.00612613
0.00425926
0.00536031
0.00337333
0.00332528
0.00362763
0.00389343
0.0035662
0.00297724
0.00237692
0.00186299
0.0014475
0.00111545
0.000853519
0.000657214
0.000525777
0.000454416
0.000425287
0.000419417
0.000427629
0.000444438
0.000466293
0.00049065
0.000515705
0.000540402
0.0005645
0.000588612
0.000614118
0.000642962
0.000677478
0.000720578
0.00077657
0.000852616
0.00096043
0.00111729
0.00134479
0.00166486
0.00209632
0.00265598
0.0033582
0.00417155
0.0034035
)
;

boundaryField
{
    floor
    {
        Cmu             0.09;
        kappa           0.41;
        E               9.8;
        type            epsilonWallFunction;
        value           nonuniform List<scalar> 
36
(
0.000860436
8.94743e-05
0.000262418
0.000268795
0.000249712
0.00021989
0.00018393
0.000152235
0.000126456
0.000105857
8.93994e-05
7.62546e-05
6.56066e-05
5.68147e-05
4.93527e-05
4.2748e-05
3.65018e-05
3.18063e-05
2.35942e-05
2.35942e-05
4.80667e-05
7.07576e-05
9.43842e-05
0.000160267
0.00037868
0.000327257
0.000860436
0.001129
0.000978459
0.000858156
8.94743e-05
0.000858156
0.000512032
0.00158358
0.00102832
0.00156497
)
;
    }
    ceiling
    {
        Cmu             0.09;
        kappa           0.41;
        E               9.8;
        type            epsilonWallFunction;
        value           nonuniform List<scalar> 
43
(
0.00536031
0.00337333
0.00332528
0.00362763
0.00389343
0.0035662
0.00297724
0.00237692
0.00186299
0.0014475
0.00111545
0.000853519
0.000657214
0.000525777
0.000454416
0.000425287
0.000419417
0.000427629
0.000444438
0.000466293
0.00049065
0.000515705
0.000540402
0.0005645
0.000588612
0.000614118
0.000642962
0.000677478
0.000720578
0.00077657
0.000852616
0.00096043
0.00111729
0.00134479
0.00166486
0.00209632
0.00265598
0.0033582
0.00417155
0.0034035
0.00454556
0.00511567
0.00118792
)
;
    }
    sWall
    {
        Cmu             0.09;
        kappa           0.41;
        E               9.8;
        type            epsilonWallFunction;
        value           nonuniform List<scalar> 9(0.0130038 0.0106895 0.00807277 0.00612436 0.00618208 0.00454556 0.00741273 0.00650049 0.00536031);
    }
    nWall
    {
        Cmu             0.09;
        kappa           0.41;
        E               9.8;
        type            epsilonWallFunction;
        value           nonuniform List<scalar> 
14
(
0.000327257
0.000556175
0.000920478
0.00326012
0.00340266
0.00389266
0.00339686
0.00289004
0.00265137
0.00325935
0.0036471
0.0040012
0.00425926
0.0034035
)
;
    }
    sideWalls
    {
        type            empty;
    }
    glass1
    {
        Cmu             0.09;
        kappa           0.41;
        E               9.8;
        type            epsilonWallFunction;
        value           nonuniform List<scalar> 9(0.000253113 0.000796959 0.00163052 0.00285328 0.00454555 0.00676287 0.00967105 0.0127577 0.0138265);
    }
    glass2
    {
        Cmu             0.09;
        kappa           0.41;
        E               9.8;
        type            epsilonWallFunction;
        value           nonuniform List<scalar> 2(0.00214242 0.00305309);
    }
    sun
    {
        Cmu             0.09;
        kappa           0.41;
        E               9.8;
        type            epsilonWallFunction;
        value           nonuniform List<scalar> 
14
(
0.000253113
0.000306356
0.000303035
0.000344245
0.000385152
0.000425003
0.00046449
0.000504799
0.000547662
0.000595796
0.000644223
0.000692565
0.000742471
0.000798749
)
;
    }
    Table_master
    {
        Cmu             0.09;
        kappa           0.41;
        E               9.8;
        type            epsilonWallFunction;
        value           nonuniform List<scalar> 9(0.000550834 0.000362071 0.00025033 0.000181044 0.000136093 0.000105785 8.46874e-05 6.97547e-05 5.94123e-05);
    }
    Table_slave
    {
        Cmu             0.09;
        kappa           0.41;
        E               9.8;
        type            epsilonWallFunction;
        value           nonuniform List<scalar> 9(0.000813902 0.000612289 0.000481416 0.000388011 0.000318677 0.000263937 0.000218437 0.000178742 0.000141607);
    }
    inlet
    {
        type            turbulentMixingLengthDissipationRateInlet;
        mixingLength    0.01;
        phi             phi;
        k               k;
        value           uniform 0.000471671;
    }
    outlet
    {
        type            zeroGradient;
    }
}


// ************************************************************************* //
