/*--------------------------------*- C++ -*----------------------------------*=========                 |
  \      /  F ield         | OpenFOAM: The Open Source CFD Toolbox
   \    /   O peration     | Website:  https://openfoam.org
    \  /    A nd           | Version:  6
     \/     M anipulation  |
\*---------------------------------------------------------------------------*/
FoamFile
{
    version     2.0;
    format      ascii;
    class       volScalarField;
    location    "490";
    object      PMV;
}
// * * * * * * * * * * * * * * * * * * * * * * * * * * * * * * * * * * * * * //

dimensions      [0 0 0 0 0 0 0];

internalField   nonuniform List<scalar> 
458
(
1.3249433850016052
1.0790453320212015
1.0456621874159706
1.0167598027423523
0.9988536888427908
0.9903198389979234
0.9930563393797661
1.007582636533832
1.0372122417708272
1.0857689578012426
1.1569454401155033
1.2259971278024888
1.2417529470580522
1.2503466907326066
1.2622820315425949
1.3792188148256765
1.3658576510483758
1.3620400178303702
1.368720830357292
1.3739698897982244
1.377787303256796
1.373159661072114
1.369268002088715
1.370182044427007
1.3725016846207259
1.3754433884694526
1.378671803091922
1.383458090271529
1.3898667414656947
1.4010998261452123
1.4107094349726192
1.4150032071457381
1.4293150515792157
1.2577231742724044
1.0911701880714983
1.0789807331608159
1.0505278240031046
1.0337805397426663
1.025471981071121
1.026771067802535
1.0348608624916644
1.0494186906425473
1.0742779561435447
1.1147289510652492
1.1767356171835546
1.2388883117817093
1.2493918424793662
1.25343192819951
1.2122859816686593
1.2136510671467995
1.2369456784652786
1.3339126463971127
1.35249563521018
1.35249563521018
1.3601311753642893
1.3626113326240097
1.3623226287207693
1.362853130321859
1.3644480315324135
1.3651595483085495
1.3658978786707956
1.366341767355621
1.3676205307950335
1.3692063283703324
1.3727833165300003
1.3813739678005328
1.3901933971458793
1.3973504040106741
1.3814589492918794
1.288950591466697
1.082338576241981
1.111796385788257
1.0968676125621215
1.0902218281916998
1.0862271003275472
1.0862769608773497
1.0826948113478412
1.0689475608692547
1.0571581817062032
1.0685215476669105
1.1181230296255307
1.2111979362226621
1.2560757154049873
1.2627594349190778
1.26562383833165
1.2637569730550577
1.2466805985440381
1.2437820741260206
1.306549980740121
1.315439395020306
1.3242911470734242
1.3355850331899906
1.339804200392121
1.3624430890040093
1.377787303256796
1.3782644749039323
1.3782644749039323
1.3787416454273924
1.3792188148256765
1.3796959830974505
1.3806503162555288
1.383513288543071
1.3873305210608973
1.3803672320628178
1.3085818549559323
1.363166770878295
1.076175874087706
1.1355059866622055
1.1467209855472713
1.16451091102633
1.176186472674715
1.1782226253799264
1.152642502982562
1.094460800168172
1.0408086561122651
1.0291400737669025
1.0767665182349198
1.1702146118192125
1.2630156102373815
1.2766037796952285
1.2775585365109068
1.2491333793954755
1.2250112403857691
1.1755518140925298
1.2415622272897031
1.2781044979875327
1.304705656425423
1.3354669021003454
1.3706404857947974
1.397772873763291
1.3922649692336404
1.3867843945574536
1.386328596283155
1.3882358012277918
1.3909838575693132
1.3981973601225186
1.4119661577419558
1.4353047997969748
1.4341655758092182
1.4192968791672804
1.360485551660836
1.26409946734705
1.4572491378435453
1.08455027341784
1.1530969532949058
1.1913841472219566
1.247336111479523
1.2948279758449375
1.3029293783818139
1.227708703597365
1.1151083458836424
1.0257859489825696
1.0004047091094772
1.0509677279528087
1.146740072598523
1.2497543902831154
1.2966529543381762
1.2980849792629798
1.2842261742066086
1.255613198808697
1.2546206648800415
1.271240601343236
1.3032419067958414
1.3441395406161403
1.3865967574567544
1.4280222572646906
1.4574582744760418
1.4689593311387605
1.4706194988039762
1.470510175575662
1.4695339344731673
1.4667970085212596
1.4649250475761495
1.4648127139402882
1.4640026253680298
1.4486337956295932
1.421110368565147
1.345609145782084
1.3455634095761124
1.3442521776757363
1.4292069085898744
1.3075005751393345
1.554847518917897
1.1147409835934545
1.1844272037715322
1.2239443276521762
1.3096607417233468
1.3849447593231008
1.4155645077469183
1.2552527858195175
1.1130839127901802
1.0085548159861
0.9800110507916239
1.0353627785583461
1.1431146057974562
1.2625129033378093
1.3252918829832436
1.3305419830266
1.3281555885771146
1.329587428191163
1.3398931716260603
1.3611451527534115
1.3955252521686183
1.4297920934203998
1.4579352379622572
1.4808278390720258
1.4984719451116857
1.5103924710320638
1.5184978751920357
1.5232655467276808
1.5251725706140191
1.5242190618794393
1.519928193359583
1.5127764604490672
1.4961320398739808
1.465696646296014
1.4286349076503784
1.3574175064328617
1.3504379549593564
1.3444428930483456
1.3692869727854293
1.3771562459574165
1.6471695845978096
1.2016164414092445
1.304451027564427
1.2830892135524516
1.3388403079104796
1.4188198094779516
1.3479129749261514
1.2246776033795868
1.0818546442970631
0.9786002003055031
0.9610977961823094
1.0356143013107129
1.1671284291122617
1.3110385902343724
1.364426046703587
1.3749242498564895
1.3754014282157556
1.3811274811389815
1.3997360141279385
1.4259757228867842
1.4550734364765563
1.4822585174248537
1.505624375799523
1.5237423051048269
1.5361374553485168
1.5437646884248446
1.5480548189571706
1.5494848320788799
1.5485314916919264
1.5451947470821932
1.5385210113350203
1.5294632801363015
1.5184978751920357
1.501519349616815
1.4567506972811117
1.3941781635752093
1.3648553067049343
1.3438833970915813
1.3163540398499183
1.4220507319546332
1.7877786521231227
1.5746805062083713
1.5167611892731323
1.4003175825657634
1.3793505767166545
1.367362687486386
1.2930014382723054
1.1481124707409525
0.9983190697469534
0.9187781477335464
0.9432318991584204
1.0655669493774782
1.2379863238429687
1.375878605459901
1.415957365177365
1.4278839183711682
1.432177283346484
1.44219472637755
1.4622278472774461
1.486550473640196
1.5103924710320638
1.5308934874863585
1.5466247906088972
1.5575879498316967
1.5637841152181804
1.5666437842833314
1.5671203896375372
1.5656905682904703
1.562830878167873
1.558541225148288
1.5523448124505093
1.5437646884248446
1.533277133809208
1.5208817308632527
1.5070548205941399
1.492272896309029
1.4825543130069097
1.4551695444059634
1.3762373744107836
1.2899623276053744
1.997459843866279
1.8499428503457132
1.6887723673690158
1.5462731387970265
1.4543720755487064
1.3807017288439578
1.1803735979928702
0.9587619585185985
0.8300675121012095
0.835535289465741
0.9585713563970698
1.16937159685547
1.3634716383920678
1.4417177184001897
1.4703358013694432
1.4827354072977386
1.491319174033231
1.5041939171635053
1.521358497227549
1.53947442214652
1.5552047313381898
1.5671203896375372
1.572822622421334
1.5686055746074432
1.563489742509595
1.5568017898461497
1.5492120390274577
1.5402952675772867
1.5302011413137657
1.5188709800247202
1.5053423803391401
1.4905351226394075
1.476644676389615
1.4598950709453669
1.440049388643539
1.4224608587578613
1.4107147058853708
1.406192011378035
1.396462167552735
1.3653596544778128
-1.6698909364573868
-0.771485534628489
-0.22007523815001284
-0.024665603818493333
0.12460705105600678
0.3188333439501828
0.5702690072456084
0.8541767207374494
1.1546903257974503
1.3658576510483758
1.4627047969433105
1.47883446423029
1.4878644850013818
1.4962375566631099
1.5075544398206457
1.5204759516205675
1.5328888142625892
1.5417678814698885
1.545968999913895
1.5467020632354118
1.5440072889883365
1.5394468178478236
1.532916301933853
1.5256831188541988
1.5172533307883906
1.5083567232328963
1.4994675782125184
1.4922100017396334
1.4861220991467623
1.4823566952405125
1.479118609722942
1.4773092826378096
1.4754347910040462
1.4757223580816767
1.4862721943878943
1.5230901794093594
1.5905469111065211
1.4383066692295647
-1.6806369408866417
-0.5983172951629598
-0.019139039090995742
0.3009889458457594
0.5181687289975131
0.7841845173638525
1.0641047469134781
1.2914021279755852
1.3807699170907668
1.4261286826437118
1.4548464074275524
1.4716177130488568
1.4826113652123518
1.4922737142066287
1.5004695547037699
1.5084597027081232
1.5150720733125647
1.51960140962106
1.5224908857227792
1.5226795929235475
1.5217075904329076
1.5192160578544087
1.5163216411205864
1.5126921595121436
1.5094716570397624
1.5063507410534749
1.504042701652953
1.5025188919915722
1.5027247621887752
1.5054339199334597
1.5122450655893533
1.5233428304187153
1.53558776353375
1.545938213074265
1.55666501362775
1.5918703702658965
1.539457725751355
1.481107420026766
-1.1306829013227166
-1.1298944634601953
-1.0062228088588712
-0.20202549103908168
0.3859565370772403
0.8054836609563535
1.1026493094921956
1.2480317937095122
1.3356281287236382
1.38877658760465
1.4232784959563323
1.4471705962766528
1.4621892123836366
1.4712547401929457
1.4765485492646035
1.4802434132648237
1.4816824128819288
1.4817082802264372
1.4801138569631136
1.4777570573346335
1.4752770134524946
1.4721318847772498
1.4689897873060813
1.466452086803058
1.4646321047646074
1.4636984622809186
1.4638991812640387
1.4655978317193776
1.4693139495221794
1.4752718872325565
1.4850824372766844
1.499316392515535
1.5225127682964978
1.562963753716046
1.6204872145006415
1.6266801885059012
1.5985933912419026
1.5392953778058578
1.4885634046528036
1.5013906254206841
)
;

boundaryField
{
    ".*"
    {
        type            zeroGradient;
    }
}


// ************************************************************************* //
