/*--------------------------------*- C++ -*----------------------------------*=========                 |
  \      /  F ield         | OpenFOAM: The Open Source CFD Toolbox
   \    /   O peration     | Website:  https://openfoam.org
    \  /    A nd           | Version:  6
     \/     M anipulation  |
\*---------------------------------------------------------------------------*/
FoamFile
{
    version     2.0;
    format      ascii;
    class       volScalarField;
    location    "490";
    object      PPD;
}
// * * * * * * * * * * * * * * * * * * * * * * * * * * * * * * * * * * * * * //

dimensions      [0 0 0 0 0 0 0];

internalField   nonuniform List<scalar> 
458
(
41.55289249303782
29.560652776952992
28.078715330217477
26.828290992603783
26.06920082096866
25.71169660153933
25.826033175889165
26.43773712689871
27.709963287940013
29.863887368942287
33.167282849501944
36.523204110678016
37.30786910684688
37.73861731304822
38.34000133122302
44.40146189096936
43.69527807587246
43.4940639463153
43.84635257400956
44.12368053384788
44.325659046884276
44.08084269214564
43.87523991388732
43.92350719786525
44.04606272820239
44.20161440873374
44.37249202019086
44.62613917853697
44.96633322199949
45.56414023053495
46.07700402362195
46.30657508415913
47.07350846044566
38.10986939335297
30.10861740891373
29.557747017629197
28.292226711724254
27.560950348305283
27.201966925128346
27.25792775838103
27.607814028806345
28.243480917149242
29.346601097393716
31.187714108087775
34.11465897147967
37.164713059984905
37.69066241450911
37.89372583547986
35.845868584021076
35.913069949695455
37.0677562437618
42.01978967546217
42.99214889115042
42.99214889115042
43.39355179493992
43.52415968145135
43.50895061017651
43.53689883972333
43.62095224522367
43.65846447931585
43.697399688589755
43.72081232923638
43.788278992151405
43.87198366049578
44.06094861290094
44.5156466102272
44.98369041700963
45.3643927864675
44.52015065484757
39.696414925420804
29.70898107332188
31.05236872896498
30.367856021027777
30.065574305281913
29.88460669029773
29.88686205337082
29.725048613926745
29.108216246958605
28.58455170809438
29.089207450568466
31.344717404826696
35.7923430477684
38.02683411983295
38.364130837190174
38.509026007373606
38.41456795035064
37.55462525480639
37.40940242796468
40.60064050462018
41.0599620469255
41.51900380757645
42.10702439841227
42.327348040692016
43.51529634166177
44.325659046884276
44.35092299721645
44.35092299721645
44.376190614878524
44.40146189096936
44.426736816590754
44.47729758077178
44.62906653423103
44.831624674646044
44.46229818294075
40.70547819209485
43.553424585825155
29.431720781574768
32.15476970704886
32.68259411408886
33.52802787108665
34.088209534481095
34.186326069111274
32.96290160285977
30.25820784590219
27.86659108466432
27.360138231665417
29.458236351458154
33.80116592469773
38.37708110518717
39.06630887130669
39.11490510686047
37.67768578564444
36.474327921674984
34.057652672848576
37.29833144026112
39.14270383898047
40.50555789593057
42.10086065275632
43.94772119320379
45.38688920047987
45.0938037123291
44.80263087741753
44.77843617460418
44.87969616276982
45.02569915885354
45.40949565297832
46.14417021757249
47.395232835862224
47.33400971220994
46.536386356000335
43.41220696881031
38.43189071111362
48.57732309796428
29.80880824968115
32.9844596808978
34.823531106909016
37.58749828726523
39.997607143447084
40.41405409923483
36.60811984008624
31.205245121175167
27.21548601384478
26.13447430416703
28.311572549301417
32.68349585615758
37.70886771739778
40.09129018937698
40.16485411796197
39.454885988989375
38.00353470391227
37.95355384197903
38.79373600323878
40.4301487449465
42.554097786565066
44.79267032230942
47.004125534904006
48.588612624439406
49.210083296467175
49.29988915599721
49.29397465563172
49.241163489639604
49.09314921570888
48.99195046347285
48.985878666804005
48.94209555709247
48.11262930134357
46.63352232649299
42.63104364125157
42.62864835838858
42.55999380455136
47.067703761459185
40.64967668857413
53.87753774779936
31.188270031485757
34.486074538853714
36.421464775202004
40.761181509269015
44.70499931506781
46.336603906734105
37.98538255314082
31.111756003441897
26.478960553300368
25.283549793337798
27.62960138730621
32.512423624885585
38.35166962670083
41.57100317372499
41.84413878326634
41.71991767103248
41.794436700196485
42.33199782888612
43.4469358158093
45.26723432648241
47.099115915015396
48.61436144183861
49.85259959280096
50.80969605178397
51.457389281051825
51.898188658179706
52.157597563339294
52.26138202729168
52.20948838497258
51.97600309406311
51.58700830463347
50.682652395839426
49.03365954586368
47.0370033119696
43.250772518086826
42.88415815030185
42.56997740449436
43.876241543163125
44.29225332767706
58.897258265612344
35.32243799215853
40.49243658563086
39.39683839993773
42.27698323080255
46.510840119576656
42.75175021838507
36.4577936043887
29.687161000987103
25.22527193514523
24.508714616052856
27.640523055765897
33.653251294931906
40.83235694856706
43.61979331275064
44.17415285632795
44.199394616163815
44.5025834014965
45.491460439738724
46.89433194590425
48.45990046197305
49.930125651015416
51.19822778257074
52.183542616398825
52.858334837783836
53.27375293879465
53.50745968778375
53.58536562827733
53.533428164550315
53.351653059818815
52.988142749420724
52.49493610343634
51.898188658179706
50.975201143552844
48.55041818932324
45.19555657099193
43.642423323760006
42.54069078353267
41.10731832851238
46.68390763563115
66.37668698658628
54.95811070038716
51.80371781650602
45.52244987086708
44.4084407608612
43.77467308767402
39.903919789740456
32.74836326975182
26.046722942215737
22.825895554233895
23.789628116424566
28.957549545983568
37.119682396945805
44.224640096591365
46.357623736104124
46.99670223541795
47.22719310760423
47.7658204495463
48.84619437156154
50.162789195630936
51.457389281051825
52.57279847727609
53.429555403848184
54.02685021370044
54.364453646481664
54.52026268081615
54.546230118955954
54.468327132787245
54.312515877680966
54.07879007538556
53.74118134443412
53.27375293879465
52.70258016297551
52.02788339236137
51.275965085735436
50.47319633823088
49.946156211980245
48.46508643215595
44.24362356629193
39.74820580325943
76.6357436119979
69.55851723259912
61.14021566022322
53.410398726298574
48.422057881988145
44.48002184893458
34.29011091600988
24.41398671197888
19.533781560940113
19.727282692852285
24.40626642983463
33.76073295801504
43.56948973677626
47.7401465693065
49.284541038836515
49.955970885670865
50.42144744475116
51.12050043166763
52.053824712887
53.040068741219585
53.897000280999556
54.546230118955954
54.85689744274028
54.62714820337903
54.34841457463025
53.98401594581265
53.57050390804604
53.084776258648354
52.535105492557264
51.91848611574688
51.18290403699757
50.37890934239252
49.6260102756771
48.720185567670605
47.650372251252335
46.705886034886845
46.077285685247254
45.83574766189676
45.3171030303971
43.66901596738207
60.12453405064554
17.53964803766098
6.0047044509648515
5.012594361906935
5.321636496515765
7.11332943523017
11.81195566129459
20.396370165432742
33.06009686480074
43.69527807587246
48.871963803349985
49.744607668684694
50.23404680494004
50.68838065067372
51.30311928801206
52.00580523030727
52.68143639147895
53.1649857540767
53.393830513817086
53.433764950550824
53.286967983513094
53.03856529090112
52.682933065903015
52.28916931662436
51.8304876726376
51.346725859774715
50.863763171826584
50.469783501909546
50.1395614468598
49.93544629944105
49.75999951804268
49.66200093086303
49.56049990268671
49.57606943447886
50.14769991411776
52.14805432854458
55.82222082058584
47.556628138923614
60.70310402555707
12.505217065260624
5.0075827758510485
6.88256504902408
10.61472791651066
17.95958331777618
28.89250788509662
39.82194999726846
44.483635097468515
46.90253623007076
48.447650367766606
49.35389823750502
49.949248214858066
50.47324071982477
50.91818057280589
51.352323344061716
51.711846763745285
51.9582241756008
52.11544247357917
52.125711241363625
52.07281975503683
51.937259357328095
51.779809614412294
51.58242435918372
51.40733125088011
51.23770067040341
51.112284416287416
51.02949795230978
51.04068185276346
51.187878289262095
51.558113736575585
52.16180326452246
52.8284005998818
53.392153382997854
53.976563656483755
55.89427083559809
53.03915938264364
49.86774841415663
31.929021716953244
31.892190224513897
26.380135931063577
5.8463849279765725
8.102427411117702
18.679282923388257
30.632062750548698
37.62239793755935
42.10927306979307
44.90841866933169
46.749708982627155
48.03378252290758
48.84410703258051
49.334258368925106
49.62080495791453
49.82093495065998
49.898905679620555
49.900307417101224
49.813915839551115
49.68625138455404
49.55195775049111
49.38172111284147
49.211730594139084
49.074500315639284
48.976116714989615
48.92565788900767
48.93650510743089
49.0283177874953
49.229264208288065
49.551680217836434
50.08319324622405
50.85555277151431
52.11663323796059
54.31975570557294
57.45050484643155
57.786737152492044
56.26018962100474
53.03031723443257
50.27195341345917
50.968209036199525
)
;

boundaryField
{
    ".*"
    {
        type            zeroGradient;
    }
}


// ************************************************************************* //
