/*--------------------------------*- C++ -*----------------------------------*\
  =========                 |
  \\      /  F ield         | OpenFOAM: The Open Source CFD Toolbox
   \\    /   O peration     | Website:  https://openfoam.org
    \\  /    A nd           | Version:  6
     \\/     M anipulation  |
\*---------------------------------------------------------------------------*/
FoamFile
{
    version     2.0;
    format      ascii;
    class       volScalarField;
    location    "310";
    object      T;
}
// * * * * * * * * * * * * * * * * * * * * * * * * * * * * * * * * * * * * * //

dimensions      [0 0 0 1 0 0 0];

internalField   nonuniform List<scalar> 
458
(
302.786
302.512
302.498
302.495
302.491
302.487
302.483
302.478
302.47
302.46
302.452
302.45
302.456
302.476
302.511
302.697
302.672
302.662
302.67
302.679
302.686
302.694
302.701
302.709
302.716
302.723
302.731
302.738
302.745
302.753
302.762
302.773
302.801
302.967
302.547
302.521
302.522
302.524
302.523
302.52
302.512
302.495
302.47
302.447
302.435
302.441
302.459
302.48
302.489
302.5
302.522
302.703
302.644
302.64
302.651
302.664
302.67
302.675
302.68
302.684
302.688
302.693
302.697
302.702
302.708
302.716
302.727
302.743
302.786
303.16
302.593
302.553
302.563
302.576
302.585
302.589
302.58
302.549
302.499
302.45
302.425
302.43
302.454
302.475
302.487
302.496
302.515
302.653
302.627
302.629
302.649
302.673
302.675
302.678
302.681
302.685
302.688
302.692
302.696
302.7
302.704
302.713
302.722
302.737
302.782
303.357
302.652
302.587
302.606
302.636
302.665
302.683
302.676
302.623
302.537
302.455
302.414
302.42
302.452
302.481
302.498
302.505
302.514
302.524
302.546
302.581
302.623
302.667
302.705
302.737
302.76
302.779
302.795
302.809
302.82
302.83
302.838
302.844
302.812
302.779
302.761
302.786
303.552
302.729
302.624
302.641
302.686
302.738
302.782
302.779
302.698
302.571
302.455
302.402
302.411
302.453
302.497
302.524
302.534
302.541
302.558
302.589
302.631
302.68
302.729
302.773
302.812
302.84
302.863
302.881
302.895
302.902
302.904
302.902
302.893
302.868
302.829
302.793
302.792
302.894
302.982
302.981
303.73
302.829
302.682
302.674
302.716
302.778
302.861
302.853
302.738
302.578
302.446
302.386
302.402
302.462
302.527
302.571
302.592
302.606
302.631
302.669
302.716
302.767
302.815
302.858
302.893
302.92
302.94
302.955
302.964
302.967
302.962
302.952
302.936
302.91
302.873
302.831
302.812
302.855
302.889
302.932
303.888
302.993
302.83
302.786
302.799
302.849
302.923
302.883
302.729
302.542
302.402
302.354
302.395
302.486
302.579
302.644
302.68
302.704
302.735
302.775
302.821
302.867
302.91
302.945
302.973
302.993
303.007
303.016
303.02
303.018
303.008
302.993
302.973
302.947
302.913
302.875
302.85
302.857
302.872
302.904
304.118
303.45
303.261
303.134
303.072
303.08
303.042
302.875
302.634
302.419
302.303
302.306
302.404
302.542
302.668
302.75
302.794
302.82
302.851
302.889
302.928
302.965
302.997
303.021
303.039
303.05
303.057
303.058
303.056
303.05
303.04
303.025
303.005
302.982
302.956
302.929
302.913
302.918
302.938
303.08
304.448
304.136
303.893
303.662
303.478
303.326
303.023
302.63
302.308
302.147
302.149
302.275
302.474
302.667
302.811
302.876
302.908
302.933
302.961
302.992
303.02
303.045
303.064
303.077
303.085
303.088
303.087
303.084
303.079
303.072
303.066
303.061
303.059
303.061
303.071
303.092
303.124
303.159
303.186
303.25
297.509
299.095
300.057
300.435
300.674
300.973
301.331
301.713
302.073
302.408
302.724
302.876
302.951
302.986
303.008
303.029
303.051
303.072
303.09
303.102
303.11
303.114
303.115
303.114
303.111
303.108
303.105
303.103
303.102
303.101
303.102
303.108
303.12
303.139
303.165
303.194
303.222
303.252
297.885
299.209
300.058
300.566
301.029
301.48
301.949
302.361
302.648
302.844
302.964
303.021
303.052
303.073
303.089
303.104
303.117
303.127
303.134
303.138
303.139
303.139
303.137
303.135
303.133
303.131
303.129
303.127
303.126
303.126
303.127
303.131
303.138
303.151
303.169
303.191
303.196
303.233
299.524
299.484
299.481
300.572
301.294
301.891
302.36
302.652
302.83
302.951
303.026
303.075
303.105
303.124
303.136
303.145
303.152
303.158
303.162
303.164
303.164
303.164
303.162
303.16
303.158
303.155
303.153
303.151
303.149
303.147
303.145
303.144
303.143
303.144
303.147
303.155
303.165
303.174
303.18
303.223
)
;

boundaryField
{
    floor
    {
        type            wallHeatTransfer;
        Tinf            uniform 305.2;
        alphaWall       uniform 0.24;
        value           nonuniform List<scalar> 
36
(
302.807
303.152
303.084
303.039
303.032
303.043
303.067
303.096
303.124
303.151
303.177
303.203
303.227
303.25
303.273
303.296
303.321
303.344
303.396
303.396
303.305
303.254
303.218
303.233
303.293
303.275
302.807
302.731
302.777
302.844
303.152
302.844
303.162
302.795
303.003
302.776
)
;
    }
    ceiling
    {
        type            wallHeatTransfer;
        Tinf            uniform 303.2;
        alphaWall       uniform 0.24;
        value           nonuniform List<scalar> 
43
(
299.749
299.706
299.699
300.713
301.401
301.972
302.419
302.694
302.861
302.974
303.044
303.089
303.117
303.134
303.145
303.153
303.159
303.164
303.168
303.17
303.17
303.17
303.168
303.167
303.164
303.162
303.16
303.158
303.156
303.154
303.152
303.15
303.15
303.15
303.153
303.159
303.169
303.177
303.182
303.221
304.39
304.098
298.223
)
;
    }
    sWall
    {
        type            wallHeatTransfer;
        Tinf            uniform 315.2;
        alphaWall       uniform 0.36;
        value           uniform 300.923;
    }
    nWall
    {
        type            wallHeatTransfer;
        Tinf            uniform 307.2;
        alphaWall       uniform 0.36;
        value           nonuniform List<scalar> 6(303.767 303.707 303.591 303.82 303.798 303.848);
    }
    sideWalls
    {
        type            empty;
    }
    glass1
    {
        type            wallHeatTransfer;
        Tinf            uniform 315.2;
        alphaWall       uniform 4.3;
        value           nonuniform List<scalar> 9(311.205 310.578 310.18 309.876 309.622 309.387 309.196 309.26 309.488);
    }
    glass2
    {
        type            wallHeatTransfer;
        Tinf            uniform 307.2;
        alphaWall       uniform 4.3;
        value           nonuniform List<scalar> 2(305.606 305.727);
    }
    sun
    {
        type            wallHeatTransfer;
        Tinf            uniform 305.2;
        alphaWall       uniform 0.24;
        value           nonuniform List<scalar> 
14
(
303.035
302.771
302.754
302.741
302.729
302.719
302.708
302.697
302.685
302.673
302.666
302.667
302.681
302.726
)
;
    }
    Table_master
    {
        type            zeroGradient;
    }
    Table_slave
    {
        type            zeroGradient;
    }
    inlet
    {
        type            fixedValue;
        value           uniform 295.15;
    }
    outlet
    {
        type            zeroGradient;
    }
}


// ************************************************************************* //
