/*--------------------------------*- C++ -*----------------------------------*\
  =========                 |
  \\      /  F ield         | OpenFOAM: The Open Source CFD Toolbox
   \\    /   O peration     | Website:  https://openfoam.org
    \\  /    A nd           | Version:  6
     \\/     M anipulation  |
\*---------------------------------------------------------------------------*/
FoamFile
{
    version     2.0;
    format      ascii;
    class       volVectorField;
    location    "2270";
    object      U;
}
// * * * * * * * * * * * * * * * * * * * * * * * * * * * * * * * * * * * * * //

dimensions      [0 1 -1 0 0 0 0];

internalField   nonuniform List<vector> 
458
(
(0.0348251 0.0885225 0)
(-0.172081 0.0265841 0)
(-0.199349 0.0191133 0)
(-0.233225 0.0130811 0)
(-0.258397 0.00641375 0)
(-0.273602 -0.00080485 0)
(-0.276731 -0.00877822 0)
(-0.265483 -0.0177782 0)
(-0.239425 -0.0274273 0)
(-0.199713 -0.0361121 0)
(-0.150447 -0.042052 0)
(-0.0978298 -0.0436519 0)
(-0.0487291 -0.039082 0)
(-0.00626969 -0.0236848 0)
(-0.0102631 0.00977299 0)
(-0.0102386 0.0105133 0)
(-0.0372614 -0.0174866 0)
(-0.0145117 -0.029103 0)
(0.0136672 -0.0251833 0)
(0.0334388 -0.0178893 0)
(0.0480553 -0.00955481 0)
(0.0568146 -0.00517621 0)
(0.0606935 -0.00363236 0)
(0.062129 -0.00308269 0)
(0.0627785 -0.00275984 0)
(0.0630885 -0.0025094 0)
(0.0630277 -0.00224147 0)
(0.06243 -0.00179746 0)
(0.0608386 -0.000838888 0)
(0.057237 0.00107432 0)
(0.0505179 0.00317035 0)
(0.0451139 0.00508598 0)
(-0.0141474 0.0219478 0)
(0.214273 0.18189 0)
(-0.162149 0.0709936 0)
(-0.162942 0.0577628 0)
(-0.198658 0.0457437 0)
(-0.224134 0.0319886 0)
(-0.24011 0.0161759 0)
(-0.244613 -0.00240987 0)
(-0.235118 -0.0239668 0)
(-0.211869 -0.0461702 0)
(-0.176486 -0.0649275 0)
(-0.133356 -0.0764279 0)
(-0.0881267 -0.0782003 0)
(-0.0462595 -0.0687313 0)
(-0.0100262 -0.0460176 0)
(0.0194108 -0.0133802 0)
(0.0442439 0.00785004 0)
(0.0548482 0.0347585 0)
(-0.0118079 0.0706832 0)
(0.0670393 0.0439828 0)
(0.0102858 -0.021834 0)
(0.0265173 -0.0378985 0)
(0.0407454 -0.0356451 0)
(0.0531345 -0.0273416 0)
(0.0595567 -0.0120938 0)
(0.0611768 -0.00275368 0)
(0.0612266 0.000745383 0)
(0.0613913 0.00202293 0)
(0.0617166 0.00272165 0)
(0.0619416 0.00322149 0)
(0.0619991 0.0036748 0)
(0.0618952 0.00440706 0)
(0.0611842 0.00620488 0)
(0.0577877 0.0112232 0)
(0.0490971 0.015532 0)
(0.0476927 0.0187032 0)
(-0.0584298 0.0475492 0)
(0.379535 0.272956 0)
(-0.180118 0.113734 0)
(-0.123513 0.0941099 0)
(-0.159198 0.0724349 0)
(-0.1826 0.0495033 0)
(-0.198411 0.0236429 0)
(-0.204063 -0.00653489 0)
(-0.195374 -0.0409799 0)
(-0.173592 -0.0757815 0)
(-0.141425 -0.10365 0)
(-0.103841 -0.118954 0)
(-0.0658949 -0.119157 0)
(-0.0318226 -0.104121 0)
(-0.00227649 -0.0743987 0)
(0.0220316 -0.0400739 0)
(0.037598 -0.0152196 0)
(0.04318 0.013164 0)
(-0.0236589 0.0623208 0)
(0.122491 -0.00752973 0)
(0.0725108 -0.0320894 0)
(0.0643125 -0.0419283 0)
(0.067261 -0.0417567 0)
(0.0718713 -0.038044 0)
(0.0734895 -0.0282281 0)
(0.0643662 -0.0183292 0)
(0.0574117 -0.0130271 0)
(0.0548131 -0.0100786 0)
(0.0541217 -0.00818602 0)
(0.0538875 -0.00689749 0)
(0.0539578 -0.0059026 0)
(0.054757 -0.00475359 0)
(0.0572077 -0.00139894 0)
(0.0561022 0.0149934 0)
(0.0445864 0.0258685 0)
(0.0541327 0.0332455 0)
(-0.0993799 0.0727931 0)
(0.53003 0.346654 0)
(-0.21667 0.151756 0)
(-0.0801996 0.125837 0)
(-0.115538 0.0962973 0)
(-0.133417 0.0672245 0)
(-0.14693 0.0337634 0)
(-0.152516 -0.00711131 0)
(-0.142621 -0.0550544 0)
(-0.121288 -0.102309 0)
(-0.0929787 -0.137841 0)
(-0.0625316 -0.155427 0)
(-0.0335721 -0.153429 0)
(-0.00879763 -0.133439 0)
(0.0128655 -0.0979241 0)
(0.0304331 -0.0589732 0)
(0.0443574 -0.0228968 0)
(0.059956 0.0131498 0)
(0.0588241 0.053442 0)
(0.100335 0.0615061 0)
(0.0988171 -0.0024401 0)
(0.0851525 -0.0293879 0)
(0.078469 -0.03769 0)
(0.0736175 -0.0383939 0)
(0.0670219 -0.0341076 0)
(0.0666026 -0.0208387 0)
(0.0772783 -0.0138303 0)
(0.0862412 -0.0101073 0)
(0.0916402 -0.00782432 0)
(0.0948797 -0.00591657 0)
(0.0962858 -0.0038555 0)
(0.0945176 -0.00119012 0)
(0.0882554 0.00248028 0)
(0.0757134 0.00774296 0)
(0.0597993 0.0250975 0)
(0.0440617 0.0405826 0)
(0.0629782 0.0533437 0)
(-0.131389 0.0942768 0)
(0.662684 0.403811 0)
(-0.262354 0.182679 0)
(-0.0350339 0.145258 0)
(-0.0687493 0.11132 0)
(-0.0779458 0.0792337 0)
(-0.0862935 0.0412501 0)
(-0.0890489 -0.00798751 0)
(-0.0740286 -0.0688147 0)
(-0.0534826 -0.125902 0)
(-0.031579 -0.165074 0)
(-0.0112751 -0.181844 0)
(0.00616165 -0.175992 0)
(0.0193257 -0.151484 0)
(0.0303439 -0.114539 0)
(0.040194 -0.0729584 0)
(0.0494385 -0.0337229 0)
(0.0619373 0.000675572 0)
(0.07604 0.0197178 0)
(0.0903292 -0.000565923 0)
(0.0896866 -0.0213716 0)
(0.0826201 -0.0300331 0)
(0.0738135 -0.0325491 0)
(0.0655685 -0.031629 0)
(0.058624 -0.0266318 0)
(0.0568425 -0.0155114 0)
(0.0603958 -0.00902613 0)
(0.064737 -0.0063717 0)
(0.06846 -0.00482945 0)
(0.0717026 -0.00274932 0)
(0.0742094 0.000781352 0)
(0.0750587 0.00596831 0)
(0.0731647 0.0129865 0)
(0.0682555 0.0224378 0)
(0.0612085 0.0371775 0)
(0.0500562 0.0536289 0)
(0.0748591 0.0727477 0)
(-0.00684615 0.10138 0)
(0.0557881 0.150674 0)
(-0.0835196 0.0748407 0)
(-0.277797 0.00048815 0)
(0.761892 0.451326 0)
(-0.308551 0.20334 0)
(0.00243028 0.143886 0)
(-0.0205837 0.116259 0)
(-0.0197893 0.0857225 0)
(-0.021499 0.0472958 0)
(-0.0143134 -0.0069366 0)
(0.0103163 -0.0859256 0)
(0.0269252 -0.146193 0)
(0.0388271 -0.182425 0)
(0.046047 -0.194555 0)
(0.0488951 -0.185053 0)
(0.0486304 -0.158121 0)
(0.0472256 -0.119918 0)
(0.0460519 -0.0779395 0)
(0.0464688 -0.0397074 0)
(0.0508209 -0.00999087 0)
(0.0599697 0.00482487 0)
(0.0662467 -0.00105116 0)
(0.0649938 -0.0110132 0)
(0.0586084 -0.0188058 0)
(0.0504375 -0.0229107 0)
(0.0427993 -0.0236604 0)
(0.0368231 -0.0211341 0)
(0.0342715 -0.01577 0)
(0.0354206 -0.0122937 0)
(0.0383744 -0.0108626 0)
(0.0420304 -0.00977456 0)
(0.0460902 -0.00763841 0)
(0.0502727 -0.00338433 0)
(0.0544834 0.00368379 0)
(0.0570005 0.0131865 0)
(0.0581667 0.024944 0)
(0.0592916 0.0395782 0)
(0.0583678 0.0559997 0)
(0.079709 0.0766951 0)
(0.0654483 0.0889836 0)
(0.0997222 0.0967314 0)
(0.117478 0.0571988 0)
(-0.136895 -0.0299279 0)
(0.815615 0.49419 0)
(-0.334123 0.187371 0)
(0.032241 0.0938001 0)
(0.0390632 0.101054 0)
(0.0459318 0.0830003 0)
(0.0516244 0.0393709 0)
(0.0790986 -0.0311712 0)
(0.103111 -0.103704 0)
(0.113287 -0.157017 0)
(0.112863 -0.186332 0)
(0.104582 -0.192433 0)
(0.0907907 -0.178777 0)
(0.0740948 -0.14977 0)
(0.0575011 -0.111563 0)
(0.0429714 -0.0709102 0)
(0.0326165 -0.0356959 0)
(0.0281004 -0.0107568 0)
(0.029501 0.000991144 0)
(0.0311371 -0.000280023 0)
(0.029636 -0.0065683 0)
(0.0249846 -0.0126297 0)
(0.0188652 -0.0163688 0)
(0.0128396 -0.0177421 0)
(0.00803311 -0.0171039 0)
(0.00567189 -0.0151949 0)
(0.00601389 -0.0141006 0)
(0.0080531 -0.0139675 0)
(0.0110514 -0.0137417 0)
(0.0148466 -0.012361 0)
(0.0195245 -0.00873959 0)
(0.0256933 -0.00163554 0)
(0.0333029 0.00886887 0)
(0.0400694 0.0208902 0)
(0.0478782 0.03416 0)
(0.0558776 0.0479596 0)
(0.0754522 0.0644567 0)
(0.0882331 0.0697703 0)
(0.11967 0.0632092 0)
(0.163391 0.0513057 0)
(-0.0203522 0.0954881 0)
(0.92187 0.497288 0)
(-0.0766773 0.16742 0)
(0.110609 0.0261624 0)
(0.163738 0.0227935 0)
(0.1614 0.0155474 0)
(0.162865 -0.0293627 0)
(0.19649 -0.0804103 0)
(0.211272 -0.125543 0)
(0.205361 -0.158278 0)
(0.185092 -0.173983 0)
(0.155586 -0.171675 0)
(0.121086 -0.153974 0)
(0.0852897 -0.124275 0)
(0.0523626 -0.0880745 0)
(0.0244571 -0.0510595 0)
(0.00511256 -0.0219289 0)
(-0.00463357 -0.00442852 0)
(-0.00656009 0.00175812 0)
(-0.0064408 0.000663119 0)
(-0.00764137 -0.00366295 0)
(-0.0109411 -0.00801275 0)
(-0.0154394 -0.0110769 0)
(-0.0200737 -0.0128473 0)
(-0.023938 -0.0136836 0)
(-0.02632 -0.0141347 0)
(-0.0272116 -0.014886 0)
(-0.0271756 -0.0158702 0)
(-0.0265938 -0.0165839 0)
(-0.0254663 -0.0164982 0)
(-0.023487 -0.0150359 0)
(-0.0198617 -0.0114654 0)
(-0.011709 -0.00490949 0)
(-9.3863e-05 0.00445932 0)
(0.0110864 0.0137604 0)
(0.02269 0.0208654 0)
(0.0398999 0.0277361 0)
(0.0554299 0.0224378 0)
(0.0795691 0.00564773 0)
(0.146408 0.0479781 0)
(-0.428338 0.212666 0)
(1.06591 0.444166 0)
(0.518239 0.298302 0)
(0.529534 0.249859 0)
(0.518392 0.182906 0)
(0.469839 0.122439 0)
(0.433159 0.0601134 0)
(0.392048 -0.00742342 0)
(0.342844 -0.06698 0)
(0.289085 -0.107862 0)
(0.232746 -0.126612 0)
(0.175364 -0.1251 0)
(0.118904 -0.108912 0)
(0.0654552 -0.0822847 0)
(0.0202336 -0.0512619 0)
(-0.0161047 -0.0208446 0)
(-0.0329494 -0.00607268 0)
(-0.0401273 0.000441332 0)
(-0.0416838 0.00220674 0)
(-0.0420621 0.00100788 0)
(-0.0432039 -0.00163946 0)
(-0.0458316 -0.00451695 0)
(-0.0494804 -0.00704458 0)
(-0.0535054 -0.00913447 0)
(-0.05737 -0.0108632 0)
(-0.0608173 -0.0123652 0)
(-0.0640103 -0.0137468 0)
(-0.0673528 -0.0148454 0)
(-0.0712203 -0.0153018 0)
(-0.0759667 -0.0146315 0)
(-0.082065 -0.0121814 0)
(-0.0902074 -0.00711442 0)
(-0.101118 0.00142844 0)
(-0.112752 0.0133222 0)
(-0.127984 0.028414 0)
(-0.152908 0.0467844 0)
(-0.190232 0.0673932 0)
(-0.241634 0.0862252 0)
(-0.297562 0.0999183 0)
(-0.371646 0.106912 0)
(-0.650669 0.106304 0)
(0.233922 0.0528326 0)
(0.30589 0.115963 0)
(0.321217 0.0913671 0)
(0.299643 0.0395769 0)
(0.275047 -0.0106039 0)
(0.244386 -0.0469406 0)
(0.203097 -0.0684138 0)
(0.154002 -0.0754163 0)
(0.100436 -0.0686992 0)
(0.0461624 -0.052916 0)
(-0.00863411 -0.0295126 0)
(-0.0451362 -0.0114965 0)
(-0.0635942 -0.00313929 0)
(-0.0709249 -0.000757957 0)
(-0.0731607 -0.000284159 0)
(-0.0734788 -0.000982548 0)
(-0.0737804 -0.00258364 0)
(-0.0749185 -0.00467895 0)
(-0.0771332 -0.00676755 0)
(-0.0803883 -0.00854738 0)
(-0.0841843 -0.010019 0)
(-0.0882911 -0.0111407 0)
(-0.0927203 -0.0119152 0)
(-0.0976254 -0.0123094 0)
(-0.103157 -0.0121328 0)
(-0.109347 -0.0110405 0)
(-0.116065 -0.00856336 0)
(-0.122967 -0.00415734 0)
(-0.129429 0.00273872 0)
(-0.134402 0.0123365 0)
(-0.13837 0.0256173 0)
(-0.141807 0.0431791 0)
(-0.146018 0.0642221 0)
(-0.151772 0.0850511 0)
(-0.155358 0.0955472 0)
(-0.141303 0.0734013 0)
(-0.110248 -0.0250081 0)
(-0.28661 -0.213741 0)
(0.120026 0.324336 0)
(0.00839085 0.203593 0)
(0.039264 0.118449 0)
(0.0584772 0.0604341 0)
(0.0631243 0.0216233 0)
(0.0601099 -0.00478702 0)
(0.0401957 -0.0199128 0)
(0.00541566 -0.0189531 0)
(-0.0366001 -0.0017181 0)
(-0.0701184 0.0128798 0)
(-0.0912294 0.0208813 0)
(-0.100243 0.0232642 0)
(-0.102467 0.023392 0)
(-0.102413 0.0234446 0)
(-0.101541 0.0241584 0)
(-0.100509 0.0252849 0)
(-0.0997868 0.0264259 0)
(-0.0996595 0.0271761 0)
(-0.100185 0.0271112 0)
(-0.101326 0.0259064 0)
(-0.10312 0.0238733 0)
(-0.105496 0.0216293 0)
(-0.108388 0.0194501 0)
(-0.111706 0.0174811 0)
(-0.115313 0.0158323 0)
(-0.118996 0.0146132 0)
(-0.122445 0.0139603 0)
(-0.125176 0.0140308 0)
(-0.126372 0.0155216 0)
(-0.124865 0.0198899 0)
(-0.119076 0.0282963 0)
(-0.107619 0.0417407 0)
(-0.0903519 0.0602413 0)
(-0.0683173 0.0804253 0)
(-0.0434463 0.0948377 0)
(-0.00758452 0.0857779 0)
(0.14694 0.00930477 0)
(-0.209928 -0.129684 0)
(-0.42212 -0.516031 0)
(-0.63732 -0.143275 0)
(-0.449399 0.177759 0)
(-0.357934 0.056078 0)
(-0.213899 -0.00554204 0)
(-0.145611 -0.0477924 0)
(-0.117167 -0.0705415 0)
(-0.112987 -0.071364 0)
(-0.122346 -0.0626898 0)
(-0.134863 -0.054978 0)
(-0.140347 -0.0505071 0)
(-0.138588 -0.0490676 0)
(-0.134126 -0.0499527 0)
(-0.128945 -0.0527749 0)
(-0.124482 -0.0563024 0)
(-0.121038 -0.0599458 0)
(-0.118239 -0.0635877 0)
(-0.115826 -0.0672843 0)
(-0.113758 -0.0708856 0)
(-0.112109 -0.0739021 0)
(-0.11101 -0.0756824 0)
(-0.110623 -0.0757898 0)
(-0.111053 -0.0743577 0)
(-0.112259 -0.0719867 0)
(-0.11407 -0.0689151 0)
(-0.116261 -0.0652755 0)
(-0.118549 -0.0610879 0)
(-0.120566 -0.056279 0)
(-0.121832 -0.0506327 0)
(-0.121711 -0.0438024 0)
(-0.119187 -0.0358151 0)
(-0.112354 -0.0266904 0)
(-0.0984065 -0.0158837 0)
(-0.0748449 -0.00248692 0)
(-0.041551 0.0143638 0)
(0.00931586 0.0362841 0)
(0.0618657 0.042347 0)
(0.109598 0.0240444 0)
(0.172058 -0.0159431 0)
(-0.19629 -0.0826848 0)
)
;

boundaryField
{
    floor
    {
        type            noSlip;
    }
    ceiling
    {
        type            noSlip;
    }
    sWall
    {
        type            noSlip;
    }
    nWall
    {
        type            noSlip;
    }
    sideWalls
    {
        type            empty;
    }
    glass1
    {
        type            noSlip;
    }
    glass2
    {
        type            noSlip;
    }
    sun
    {
        type            noSlip;
    }
    Table_master
    {
        type            noSlip;
    }
    Table_slave
    {
        type            noSlip;
    }
    inlet
    {
        type            fixedValue;
        value           uniform (0.46194 -0.191342 0);
    }
    outlet
    {
        type            zeroGradient;
    }
}


// ************************************************************************* //
