/*--------------------------------*- C++ -*----------------------------------*\
  =========                 |
  \\      /  F ield         | OpenFOAM: The Open Source CFD Toolbox
   \\    /   O peration     | Website:  https://openfoam.org
    \\  /    A nd           | Version:  6
     \\/     M anipulation  |
\*---------------------------------------------------------------------------*/
FoamFile
{
    version     2.0;
    format      ascii;
    class       surfaceScalarField;
    location    "2710";
    object      phi;
}
// * * * * * * * * * * * * * * * * * * * * * * * * * * * * * * * * * * * * * //

dimensions      [1 0 -1 0 0 0 0];

internalField   nonuniform List<scalar> 
850
(
-0.00305313
0.00311359
-0.00414585
0.00109272
-0.00501496
0.000869105
-0.00570382
0.000688861
-0.0061759
0.000472081
-0.00639714
0.000221243
-0.00632792
-6.92204e-05
-0.00592408
-0.000403836
-0.00517382
-0.000750267
-0.00412863
-0.00104519
-0.00290031
-0.00122832
-0.00164148
-0.00125882
-0.000538961
-0.00110252
0.000135955
-0.000674916
0.000138306
-0.000922437
0.000926094
-0.000690062
-0.000232375
-6.08485e-05
-0.000629214
0.000542595
-0.000603444
0.00100178
-0.000459185
0.00125836
-0.00025658
0.00136648
-0.000108118
0.0014193
-5.28185e-05
0.00144965
-3.0353e-05
0.00146472
-1.50667e-05
0.00146833
-3.61441e-06
0.00146133
6.99644e-06
0.00143808
2.3251e-05
0.00137956
5.852e-05
0.00125365
0.000125917
0.00105007
0.000203574
0.00079344
0.000256633
0.00079828
-0.00220747
0.00548446
-0.00329514
0.00218039
-0.00420837
0.00178233
-0.00490614
0.00138663
-0.00538765
0.000953591
-0.00563058
0.000464177
-0.00559455
-0.000105257
-0.00524034
-0.000758048
-0.00456681
-0.00142379
-0.00364274
-0.00196925
-0.00258803
-0.00228303
-0.00154148
-0.00230537
-0.000628638
-0.00201537
9.29728e-05
-0.00139653
0.000872821
-0.000641542
0.00114865
-0.000272047
0.00095686
0.000196152
0.000969549
4.14829e-05
0.000895612
0.000421735
-0.000612627
0.000786631
-0.000994111
0.0010996
-0.000916417
0.00135046
-0.000710039
0.00140692
-0.000313046
0.00141506
-0.000116256
0.00142579
-6.35457e-05
0.00143478
-3.93393e-05
0.00144004
-2.03353e-05
0.00144221
-5.7758e-06
0.00144181
7.38738e-06
0.00143634
2.873e-05
0.00139988
9.49745e-05
0.001247
0.000278793
0.000978545
0.000472033
0.000644609
0.00059057
0.00145527
-0.00156234
0.00729723
-0.00251038
0.00312843
-0.00334302
0.00261497
-0.00396559
0.0020092
-0.00441316
0.00140117
-0.00466168
0.000712695
-0.00465601
-0.000110929
-0.00433471
-0.00107935
-0.00371315
-0.00204535
-0.00288871
-0.00279369
-0.00198658
-0.00318516
-0.00112264
-0.00316932
-0.00037343
-0.00276458
0.000240579
-0.00201054
0.000752094
-0.00115306
0.000899448
-0.000419402
0.000707548
0.000388052
0.00168836
0.00143724
-0.000527796
0.00163275
-0.000808131
0.00157515
-0.000936517
0.00160845
-0.000949709
0.00181171
-0.000913307
0.00149882
0.00138272
0.00131933
0.00128014
0.00125996
0.00125434
0.00126188
0.00129076
0.00138589
0.00115887
0.000505819
0.000869985
0.000760915
0.000498884
0.00096167
0.00197272
-0.00109548
0.00871736
-0.00185229
0.00388523
-0.00243661
0.00319929
-0.00288269
0.00245528
-0.00322781
0.00174629
-0.00344068
0.000925556
-0.00344208
-0.000109528
-0.00312366
-0.00139777
-0.00254778
-0.00262122
-0.00184605
-0.00349542
-0.00113039
-0.00390082
-0.000480662
-0.00381905
6.58151e-05
-0.00331105
0.000526415
-0.00247114
0.000902521
-0.00152916
0.0011196
-0.000636482
0.00130379
0.000203862
0.00225757
0.00073458
0.00216773
0.000101782
0.00199497
-0.000355038
0.00190901
-0.000722169
0.00179821
-0.00082572
0.00166601
-0.000817511
0.00143505
-0.000682347
0.00175866
-0.000323762
0.00193632
-0.000177818
0.00206725
-0.000131078
0.00216803
-0.000100936
0.00222825
-6.03739e-05
0.00222569
2.40941e-06
0.0021328
9.27401e-05
0.00191324
0.000219402
0.00150708
0.000406004
0.00126969
0.000743215
0.000902424
0.00112818
0.000384073
0.00148002
0.00238043
-0.000756056
0.00986114
-0.00132705
0.00445623
-0.00150962
0.00338187
-0.00168821
0.00263387
-0.00185319
0.00191127
-0.00196221
0.00103458
-0.00191375
-0.000157988
-0.00155671
-0.00175482
-0.00105569
-0.00312225
-0.000537777
-0.00401333
-7.32825e-05
-0.00436532
0.000305373
-0.0041977
0.000596544
-0.00360223
0.000849426
-0.00272402
0.00106877
-0.00174851
0.00127618
-0.000843894
0.00158687
-0.000106822
0.00203043
0.000291012
0.00206431
6.79076e-05
0.001997
-0.00028773
0.00181251
-0.000537675
0.00162463
-0.000637845
0.00144754
-0.000640416
0.00131885
-0.000553658
0.0013776
-0.000382517
0.00146566
-0.000265875
0.00155012
-0.000215545
0.00163161
-0.00018242
0.00170174
-0.000130505
0.00174077
-3.66179e-05
0.0017247
0.000108808
0.00163843
0.000305666
0.0014862
0.000558241
0.00133011
0.000899303
0.00115113
0.00130716
0.000804088
0.00182706
0.00101981
0.00216471
-0.00109517
0.0021361
-0.00179343
0.000717874
-0.00172066
-0.000638732
0.0109407
-0.00101438
0.00483187
-0.00063342
0.00300091
-0.000448668
0.00244912
-0.000384039
0.00184664
-0.000303677
0.000954218
-5.18856e-05
-0.00040978
0.000334524
-0.00214122
0.000692209
-0.00347993
0.000952055
-0.00427318
0.00109507
-0.00450834
0.0011454
-0.00424803
0.0011393
-0.00359612
0.0011161
-0.00270083
0.00110064
-0.00173304
0.0011328
-0.000876062
0.00126988
-0.000243894
0.00148466
7.62274e-05
0.00153593
1.66346e-05
0.00143796
-0.000189759
0.00126358
-0.000363296
0.00108392
-0.000458176
0.000926609
-0.000483109
0.000821576
-0.000448625
0.000810772
-0.000371712
0.000860114
-0.000315216
0.00093628
-0.000291711
0.00102702
-0.000273163
0.00112585
-0.000229333
0.00122285
-0.000133621
0.00129576
3.58964e-05
0.00133283
0.000268604
0.00134813
0.000542941
0.00138214
0.000865287
0.00148259
0.00120671
0.00168607
0.00162358
0.00203681
0.00181398
0.00233694
0.00183597
0.00182999
0.00122483
0.000174765
-0.000763853
0.0121918
-0.000621459
0.00468948
0.000492312
0.00188714
0.000960667
0.00198076
0.00121803
0.00158927
0.00159954
0.000572707
0.00210284
-0.000913078
0.00244
-0.00247839
0.00257381
-0.00361374
0.00250625
-0.00420562
0.00227302
-0.0042751
0.00193605
-0.00391106
0.00155911
-0.00321919
0.00120036
-0.00234207
0.000896627
-0.00142931
0.000705091
-0.000684526
0.000653507
-0.00019231
0.000704681
2.50535e-05
0.000712772
8.54342e-06
0.000636515
-0.000113501
0.000509188
-0.000235969
0.000368885
-0.000317873
0.00024298
-0.000357204
0.000156864
-0.00036251
0.0001339
-0.000348749
0.000162908
-0.000344224
0.000222539
-0.000351341
0.000302996
-0.000353619
0.000405282
-0.00033162
0.000534372
-0.00026271
0.000687276
-0.000117007
0.000845213
0.000110666
0.00100721
0.000380941
0.00120906
0.000663437
0.00148366
0.000932118
0.00188404
0.0012232
0.00241743
0.00128058
0.00318504
0.00106836
0.00336162
0.00104825
0.0036052
0.00273597
0.00999916
0.00339175
0.0040337
0.0034494
0.00182949
0.00353508
0.00189508
0.00374636
0.00137799
0.00422229
9.67748e-05
0.00469345
-0.00138424
0.00478848
-0.00257342
0.00451414
-0.0033394
0.00396098
-0.00365246
0.0032298
-0.00354392
0.00242479
-0.00310605
0.00162793
-0.00242233
0.000922008
-0.00163615
0.000347332
-0.000854629
-2.55049e-06
-0.000334644
-0.000140858
-5.40024e-05
-0.000155277
3.94728e-05
-0.000163122
1.63884e-05
-0.000215248
-6.13753e-05
-0.000306067
-0.00014515
-0.000412296
-0.000211644
-0.000511616
-0.000257884
-0.000585883
-0.000288243
-0.000623877
-0.000310755
-0.000633086
-0.000335015
-0.000625258
-0.00035917
-0.000604691
-0.000374186
-0.000566405
-0.000369906
-0.000494183
-0.000334932
-0.000356719
-0.000254472
-0.00014659
-9.94627e-05
0.000104176
0.000130176
0.000388872
0.000378741
0.000707317
0.000613674
0.00108959
0.000840927
0.00150688
0.000863288
0.00189863
0.000676617
0.00120602
0.00174085
0.00509763
0.0105981
0.0146276
0.0125615
0.00389562
0.0112293
0.00322724
0.0103409
0.00226645
0.00953404
0.000903595
0.00853161
-0.000381806
0.00735267
-0.00139448
0.00607937
-0.0020661
0.00476051
-0.0023336
0.00342929
-0.0022127
0.00216421
-0.00184098
0.00100935
-0.00126746
5.62933e-05
-0.00068309
-0.000566125
-0.000232211
-0.000859706
-4.10626e-05
-0.000956839
4.31301e-05
-0.000976493
5.91274e-05
-0.000991876
3.17708e-05
-0.0010353
-1.79496e-05
-0.00110788
-7.25761e-05
-0.00119691
-0.000122614
-0.00128871
-0.000166078
-0.00137433
-0.000202623
-0.00145152
-0.000233565
-0.00152706
-0.000259481
-0.00161021
-0.000276013
-0.00170952
-0.000274873
-0.00183466
-0.000244772
-0.00199851
-0.000171078
-0.00221651
-3.64728e-05
-0.00248301
0.000167039
-0.00280699
0.000454149
-0.00327096
0.000842714
-0.00398816
0.00133088
-0.00502971
0.00188247
-0.00651692
0.0023505
-0.00825537
0.00241506
-0.00777181
0.00125729
-0.00235717
0.00895047
0.00560353
0.0074719
0.0047058
0.00708004
0.00265831
0.00672921
0.00125442
0.00611922
0.000228182
0.00524679
-0.000522049
0.00417818
-0.000997482
0.00298275
-0.00113817
0.00169113
-0.000921078
0.000430235
-0.000580082
-0.000609637
-0.000227593
-0.00127083
-2.1899e-05
-0.00156329
6.02541e-05
-0.00167797
7.36108e-05
-0.00170793
7.30984e-05
-0.0017137
6.48921e-05
-0.00172871
4.67827e-05
-0.00176751
2.0849e-05
-0.00183142
-8.66441e-06
-0.00191297
-4.10687e-05
-0.00200447
-7.45738e-05
-0.00210378
-0.000103318
-0.00221222
-0.000125119
-0.00233324
-0.000138462
-0.00246897
-0.000140287
-0.00261827
-0.00012557
-0.00277573
-8.73124e-05
-0.002929
-1.78076e-05
-0.00306255
9.70779e-05
-0.00317483
0.000279315
-0.00327577
0.000555091
-0.00337728
0.000944221
-0.0034861
0.0014397
-0.0035696
0.00196598
-0.00356798
0.00234887
-0.00331001
0.0021571
-0.00195001
-0.000102702
-0.00422386
-0.000826107
0.00648295
0.000742084
0.00313761
0.00140777
0.00199263
0.00164666
0.00101554
0.0015828
0.000292036
0.00121177
-0.000151018
0.000529525
-0.000315236
-0.000363916
-0.000244733
-0.00124121
-4.37818e-05
-0.00188647
6.518e-05
-0.00222717
0.000113105
-0.00235812
0.000109051
-0.00238122
8.3348e-05
-0.00237099
6.33844e-05
-0.00234992
5.20307e-05
-0.00232936
4.43254e-05
-0.00231836
3.57898e-05
-0.00232224
2.47259e-05
-0.00234161
1.07078e-05
-0.00237546
-7.22486e-06
-0.00242405
-2.59839e-05
-0.0024854
-4.19692e-05
-0.00255741
-5.31085e-05
-0.00263756
-5.8308e-05
-0.0027218
-5.60514e-05
-0.00280353
-4.38342e-05
-0.0028733
-1.75435e-05
-0.00291855
2.74383e-05
-0.00291853
9.70589e-05
-0.00284796
0.000208752
-0.00267231
0.000379441
-0.00236025
0.000632159
-0.00190394
0.000983392
-0.00128937
0.0013514
-0.000299684
0.00135919
0.00114764
0.00070977
0.00164261
-0.000597665
-0.00248957
-0.0120486
-0.0155771
-0.00905367
-0.00588864
-0.00387374
-0.0028396
-0.00253254
-0.00267155
-0.00297686
-0.00321309
-0.0032492
-0.00317674
-0.00305649
-0.00294033
-0.00284986
-0.00277933
-0.00272012
-0.00266857
-0.00262552
-0.00259348
-0.00257546
-0.00257541
-0.0025942
-0.00262909
-0.00267524
-0.00272674
-0.00277615
-0.0028135
-0.00282476
-0.00279125
-0.00268833
-0.00247395
-0.00208913
-0.00145187
-0.000463667
0.00089216
0.00225549
0.00296931
0.00237582
)
;

boundaryField
{
    floor
    {
        type            calculated;
        value           nonuniform List<scalar> 
36
(
0
0
0
0
0
0
0
0
0
0
0
0
0
0
0
0
0
0
0
-4.83914e-06
-1.23783e-05
-1.85697e-05
-2.36402e-05
-2.11163e-05
-1.96191e-05
-1.84535e-05
-2.35097e-06
-3.78399e-06
-4.35946e-06
-5.04476e-06
-3.65662e-06
-7.64391e-06
-1.10004e-05
-1.12621e-05
-1.38366e-05
-1.19392e-05
)
;
    }
    ceiling
    {
        type            calculated;
        value           nonuniform List<scalar> 
43
(
-4.18435e-05
-4.11782e-05
-4.04781e-05
-2.7414e-05
-2.227e-05
-1.86052e-05
-1.50293e-05
-1.20045e-05
-9.92931e-06
-8.50205e-06
-7.6663e-06
-7.28592e-06
-7.13823e-06
-7.11151e-06
-7.12511e-06
-7.1465e-06
-7.1777e-06
-7.22054e-06
-7.26686e-06
-7.30746e-06
-7.31506e-06
-7.27631e-06
-7.19282e-06
-7.08127e-06
-6.95242e-06
-6.80928e-06
-6.64853e-06
-6.47533e-06
-6.2839e-06
-6.07882e-06
-5.85916e-06
-5.62526e-06
-5.37661e-06
-5.10593e-06
-4.8113e-06
-4.42489e-06
-4.13956e-06
-4.04932e-06
-4.18134e-06
-3.60358e-06
6.94078e-06
4.17891e-06
-5.33142e-05
)
;
    }
    sWall
    {
        type            calculated;
        value           uniform -0.000241397;
    }
    nWall
    {
        type            calculated;
        value           nonuniform List<scalar> 6(-5.43171e-05 -6.54339e-05 -6.88139e-05 -8.3326e-05 -9.16837e-05 -0.00011014);
    }
    sideWalls
    {
        type            empty;
        value           nonuniform 0();
    }
    glass1
    {
        type            calculated;
        value           nonuniform List<scalar> 9(-6.04583e-05 -0.000163402 -0.000250424 -0.000324648 -0.000387723 -0.000440785 -0.000487279 -0.000543337 -0.000605862);
    }
    glass2
    {
        type            calculated;
        value           nonuniform List<scalar> 2(-0.000286411 -0.000317012);
    }
    sun
    {
        type            calculated;
        value           uniform 0;
    }
    Table_master
    {
        type            calculated;
        value           nonuniform List<scalar> 9(-1.5364e-07 -1.53789e-07 -1.53839e-07 -1.53869e-07 -1.53889e-07 -1.53902e-07 -1.53906e-07 -1.539e-07 -1.5387e-07);
    }
    Table_slave
    {
        type            calculated;
        value           nonuniform List<scalar> 9(1.5353e-07 1.53515e-07 1.53468e-07 1.53431e-07 1.53408e-07 1.53408e-07 1.53413e-07 1.53451e-07 1.53535e-07);
    }
    inlet
    {
        type            calculated;
        value           uniform -0.0106584;
    }
    outlet
    {
        type            calculated;
        value           nonuniform List<scalar> 2(0.0123318 0.00356969);
    }
}


// ************************************************************************* //
