/*--------------------------------*- C++ -*----------------------------------*\
  =========                 |
  \\      /  F ield         | OpenFOAM: The Open Source CFD Toolbox
   \\    /   O peration     | Website:  https://openfoam.org
    \\  /    A nd           | Version:  6
     \\/     M anipulation  |
\*---------------------------------------------------------------------------*/
FoamFile
{
    version     2.0;
    format      ascii;
    class       volScalarField;
    location    "1050";
    object      k;
}
// * * * * * * * * * * * * * * * * * * * * * * * * * * * * * * * * * * * * * //

dimensions      [0 2 -2 0 0 0 0];

internalField   nonuniform List<scalar> 
458
(
0.00226796
0.00268627
0.00280907
0.00308429
0.00334916
0.00361
0.00388072
0.00416559
0.00440593
0.00456033
0.00457782
0.00441297
0.00402211
0.00325453
0.00187349
0.000457636
0.000628895
0.000808365
0.000878883
0.000851603
0.000745753
0.000636828
0.000546651
0.000474103
0.00041528
0.000367099
0.000327377
0.000294055
0.000265263
0.000239323
0.000214619
0.000200575
0.000169417
0.00412328
0.00755208
0.00415078
0.00437479
0.00471676
0.00513616
0.00563338
0.00619782
0.0068019
0.00731434
0.00758963
0.00753212
0.00712458
0.00635513
0.00513878
0.00326441
0.00224689
0.00149571
0.000450302
0.000973165
0.00130334
0.00145848
0.00147286
0.0012595
0.00102445
0.000834094
0.000688803
0.00057737
0.000490699
0.000421537
0.000364718
0.000317454
0.000283522
0.00026439
0.000493847
0.000292748
0.00609545
0.0136489
0.00491209
0.00472574
0.00494249
0.00528709
0.00575207
0.00634229
0.00699548
0.00755222
0.00789423
0.00795144
0.00769478
0.00706154
0.00603782
0.00488894
0.00391906
0.00208659
0.00106812
0.00139972
0.00160366
0.00173053
0.001723
0.00134729
0.00103265
0.000802706
0.000637662
0.000518304
0.000430644
0.000365367
0.000316497
0.000280911
0.000262155
0.00026545
0.000780303
0.000408849
0.00835923
0.0222356
0.00592775
0.00470771
0.00474738
0.0050175
0.00547484
0.00616938
0.00689407
0.00746471
0.00783561
0.00795548
0.00774996
0.00714702
0.00628797
0.00543641
0.00463298
0.00350071
0.0027694
0.00250718
0.00237436
0.00233846
0.00228993
0.00215224
0.00170974
0.00143664
0.00126422
0.00114403
0.00104707
0.000954927
0.00087137
0.000787233
0.000694296
0.000530249
0.00042279
0.00113249
0.000542378
0.0110416
0.0339559
0.00842466
0.00475064
0.00448384
0.00470915
0.00530074
0.00635647
0.00718628
0.00774087
0.00809663
0.00819891
0.00790197
0.00718379
0.00621699
0.00530996
0.00458033
0.00397899
0.00379503
0.00347989
0.00325292
0.00307109
0.00285971
0.00259079
0.00230313
0.00210701
0.00198692
0.00189221
0.00179014
0.00166138
0.00149209
0.00129929
0.00109399
0.000865756
0.000664814
0.000922205
0.00106381
0.000969415
0.00108637
0.00128348
0.014326
0.0466867
0.0149509
0.00592426
0.0047435
0.00478439
0.00570908
0.00726856
0.00803321
0.00847565
0.00874014
0.00874928
0.00832179
0.00738006
0.00612556
0.00496695
0.00418432
0.00384225
0.00381456
0.00382356
0.00373239
0.00350933
0.00318987
0.0028355
0.00254838
0.00239581
0.00232211
0.00226349
0.00218534
0.00206542
0.00187859
0.00164903
0.00140046
0.00114688
0.000935674
0.000900752
0.00103006
0.00105444
0.00165139
0.00138073
0.0179759
0.0550457
0.0270777
0.0123626
0.00831062
0.00741461
0.00850756
0.00921164
0.00948753
0.00964714
0.00973133
0.00958521
0.00894866
0.00771055
0.00611111
0.00469963
0.00388762
0.00373659
0.0038989
0.00398332
0.00385421
0.00355107
0.00317172
0.00281261
0.00256803
0.00246903
0.00245209
0.00245736
0.00245522
0.00242476
0.00233626
0.00214746
0.00191087
0.00165914
0.00145738
0.00136472
0.00145105
0.00168157
0.00223398
0.00194891
0.0189407
0.0568405
0.0383013
0.0271729
0.0197448
0.0158845
0.013728
0.0122905
0.011538
0.0112139
0.0110114
0.0106116
0.00964793
0.00799589
0.00597501
0.00439308
0.00367791
0.00365589
0.00378037
0.00375073
0.00351741
0.00317069
0.00282073
0.00255111
0.00240851
0.00238406
0.00243159
0.00251766
0.00263037
0.00276721
0.0029255
0.00306711
0.00310948
0.0031391
0.00329226
0.00386919
0.00511938
0.0068156
0.0128311
0.00467713
0.0182043
0.026466
0.024362
0.0217105
0.0188865
0.0164649
0.014655
0.013592
0.0130885
0.0127701
0.0123594
0.0115982
0.0100727
0.00777003
0.0051598
0.00385815
0.00340309
0.00331006
0.0032535
0.00309185
0.00282394
0.00252824
0.00228305
0.00213468
0.00208925
0.00212347
0.00220974
0.00233315
0.00249007
0.00268166
0.00290931
0.00317119
0.00348977
0.00390097
0.00444784
0.00509754
0.00569688
0.00606937
0.00624872
0.00408134
0.00718444
0.0110943
0.0135427
0.0147742
0.0154391
0.0157105
0.0153805
0.0144555
0.0132162
0.011588
0.00880985
0.00585869
0.0040362
0.00322559
0.00288152
0.00270044
0.00252812
0.00231828
0.002091
0.00188818
0.00175208
0.00169312
0.00169785
0.00174767
0.00182976
0.00193922
0.00207746
0.00225112
0.00247287
0.00276576
0.00313122
0.003567
0.0040509
0.00449041
0.00471258
0.00457283
0.00410686
0.00264226
0.00805079
0.0194714
0.0216143
0.0215046
0.0207319
0.0184799
0.0153409
0.0120167
0.00883448
0.00623628
0.00435121
0.00326389
0.00271606
0.00241209
0.00221029
0.00203221
0.00184747
0.00166456
0.00150894
0.00139868
0.001338
0.00132608
0.00135485
0.00141864
0.00151584
0.00164785
0.00181795
0.00203045
0.00229589
0.00262431
0.00302435
0.0034968
0.00401536
0.00451212
0.00481677
0.00510142
0.00428743
0.0027114
0.00890517
0.00935062
0.00976451
0.0120866
0.0107985
0.00847981
0.00603545
0.00437051
0.00348251
0.00273195
0.00214613
0.00173661
0.00142361
0.00120707
0.00106709
0.000970279
0.00089576
0.000834027
0.000784715
0.000752289
0.000740367
0.000749309
0.000776159
0.000816487
0.000868903
0.000933126
0.00100984
0.00110073
0.00120881
0.00133953
0.00149644
0.00168142
0.00189881
0.00215358
0.00245034
0.00283121
0.00300659
0.00288471
0.00249568
0.00213479
)
;

boundaryField
{
    floor
    {
        type            kqRWallFunction;
        value           nonuniform List<scalar> 
36
(
0.00187349
0.000457636
0.000628895
0.000808365
0.000878883
0.000851603
0.000745753
0.000636828
0.000546651
0.000474103
0.00041528
0.000367099
0.000327377
0.000294055
0.000265263
0.000239323
0.000214619
0.000200575
0.000169417
0.000169417
0.000292748
0.000408849
0.000542378
0.000969415
0.00108637
0.00128348
0.00187349
0.00326441
0.00224689
0.00149571
0.000457636
0.00149571
0.000450302
0.00208659
0.00106812
0.0027694
)
;
    }
    ceiling
    {
        type            kqRWallFunction;
        value           nonuniform List<scalar> 
43
(
0.00890517
0.00935062
0.00976451
0.0120866
0.0107985
0.00847981
0.00603545
0.00437051
0.00348251
0.00273195
0.00214613
0.00173661
0.00142361
0.00120707
0.00106709
0.000970279
0.00089576
0.000834027
0.000784715
0.000752289
0.000740367
0.000749309
0.000776159
0.000816487
0.000868903
0.000933126
0.00100984
0.00110073
0.00120881
0.00133953
0.00149644
0.00168142
0.00189881
0.00215358
0.00245034
0.00283121
0.00300659
0.00288471
0.00249568
0.00213479
0.0182043
0.026466
0.00805079
)
;
    }
    sWall
    {
        type            kqRWallFunction;
        value           uniform 0.00890517;
    }
    nWall
    {
        type            kqRWallFunction;
        value           nonuniform List<scalar> 6(0.00128348 0.00138073 0.00194891 0.00264226 0.0027114 0.00213479);
    }
    sideWalls
    {
        type            empty;
    }
    glass1
    {
        type            kqRWallFunction;
        value           nonuniform List<scalar> 9(0.00226796 0.00412328 0.00609545 0.00835923 0.0110416 0.014326 0.0179759 0.0189407 0.0182043);
    }
    glass2
    {
        type            kqRWallFunction;
        value           nonuniform List<scalar> 2(0.00467713 0.00408134);
    }
    sun
    {
        type            kqRWallFunction;
        value           nonuniform List<scalar> 
14
(
0.00226796
0.00268627
0.00280907
0.00308429
0.00334916
0.00361
0.00388072
0.00416559
0.00440593
0.00456033
0.00457782
0.00441297
0.00402211
0.00325453
)
;
    }
    Table_master
    {
        type            kqRWallFunction;
        value           nonuniform List<scalar> 9(0.00134729 0.00103265 0.000802706 0.000637662 0.000518304 0.000430644 0.000365367 0.000316497 0.000280911);
    }
    Table_slave
    {
        type            kqRWallFunction;
        value           nonuniform List<scalar> 9(0.00170974 0.00143664 0.00126422 0.00114403 0.00104707 0.000954927 0.00087137 0.000787233 0.000694296);
    }
    inlet
    {
        type            turbulentIntensityKineticEnergyInlet;
        intensity       0.05;
        value           uniform 0.000937501;
    }
    outlet
    {
        type            zeroGradient;
    }
}


// ************************************************************************* //
