/*--------------------------------*- C++ -*----------------------------------*\
  =========                 |
  \\      /  F ield         | OpenFOAM: The Open Source CFD Toolbox
   \\    /   O peration     | Website:  https://openfoam.org
    \\  /    A nd           | Version:  6
     \\/     M anipulation  |
\*---------------------------------------------------------------------------*/
FoamFile
{
    version     2.0;
    format      ascii;
    class       volScalarField;
    location    "30999.9999979716049";
    object      epsilon;
}
// * * * * * * * * * * * * * * * * * * * * * * * * * * * * * * * * * * * * * //

dimensions      [0 2 -3 0 0 0 0];

internalField   nonuniform List<scalar> 
778
(
0.00025311
0.00030635
0.000303029
0.000344237
0.000385144
0.000424998
0.000464488
0.000504803
0.000547673
0.000595817
0.000644257
0.000692612
0.000742532
0.000798821
0.000860517
8.94857e-05
0.000262407
0.000268797
0.000249723
0.000219906
0.000183946
0.000152247
0.000126463
0.00010586
8.9401e-05
7.62558e-05
6.56078e-05
5.6816e-05
4.93541e-05
4.27493e-05
3.6503e-05
3.18072e-05
2.35946e-05
0.000796952
0.00144317
0.000287028
0.000259658
0.000261772
0.000267755
0.000276662
0.000290104
0.000310373
0.000340592
0.00037981
0.000430917
0.000499277
0.000600441
0.000785528
0.0011291
0.000978554
0.000858226
0.000511922
0.000369365
0.000294041
0.000242688
0.000203862
0.000186691
0.000154564
0.000124921
0.000100643
8.14488e-05
6.64951e-05
5.47968e-05
4.56103e-05
3.86897e-05
3.45001e-05
3.27375e-05
6.57753e-05
4.80637e-05
0.0016305
0.00407891
0.000407416
0.000242992
0.000229177
0.000231094
0.000238314
0.000250589
0.0002685
0.000292771
0.00032489
0.000366931
0.000421272
0.000494925
0.000601259
0.000724483
0.000829626
0.00158359
0.00102828
0.00051238
0.000367678
0.000294209
0.000261962
0.000550784
0.000362052
0.000250331
0.000181052
0.000136103
0.000105792
8.46926e-05
6.9758e-05
5.94143e-05
4.50973e-05
3.79482e-05
0.000108259
7.07463e-05
0.00285324
0.00877003
0.000709865
0.000240778
0.000202542
0.000200078
0.000203249
0.000209875
0.000220691
0.000237605
0.000263284
0.000300002
0.000349162
0.000412229
0.000487858
0.000560044
0.000612319
0.000824439
0.00156506
0.00072898
0.000459789
0.000358291
0.000301903
0.000291792
0.000813862
0.000612253
0.000481393
0.000388006
0.000318682
0.000263945
0.000218445
0.000178749
0.000141612
8.36227e-05
5.47727e-05
0.000148901
9.43587e-05
0.00454547
0.0158268
0.00134626
0.000258377
0.000175781
0.00016684
0.000165845
0.000167817
0.000173976
0.00018748
0.000211714
0.000248364
0.000297712
0.000359157
0.000427542
0.000488891
0.000528349
0.00058241
0.000627565
0.000483234
0.000393541
0.000331075
0.000282315
0.000248616
0.000247803
0.000226724
0.000202873
0.000181007
0.000162634
0.000146478
0.000131811
0.000118219
0.000105056
8.44163e-05
6.40604e-05
0.000105215
0.00013877
0.000160194
0.000377767
0.000326347
0.00676273
0.0248779
0.00255323
0.000318073
0.00015557
0.0001371
0.000132158
0.000130721
0.000134487
0.000148579
0.000176724
0.000218057
0.00027069
0.000333861
0.000401357
0.000462209
0.000502651
0.000521494
0.000504731
0.000438261
0.000373863
0.000315685
0.000264753
0.000223373
0.000193267
0.00016961
0.000150802
0.000135626
0.000123299
0.000112749
0.000103286
9.45171e-05
8.60731e-05
7.58866e-05
6.52454e-05
7.75127e-05
9.96278e-05
0.000214771
0.00109771
0.000554769
0.00967078
0.0336374
0.00458336
0.000464927
0.000150851
0.000116362
0.000107109
0.000103303
0.000107098
0.000127944
0.00016615
0.000215864
0.000273166
0.000339728
0.00040885
0.000469923
0.000509718
0.000520148
0.000494162
0.000437573
0.000371834
0.000307478
0.000250534
0.000204413
0.000169725
0.000144546
0.00012633
0.000112753
0.000102302
9.37283e-05
8.6223e-05
7.93303e-05
7.2781e-05
6.61284e-05
6.02738e-05
6.3593e-05
7.67081e-05
0.000179151
0.00165603
0.000917656
0.0127573
0.0404078
0.00748972
0.000871037
0.000194222
0.000115369
9.7389e-05
9.14672e-05
9.8643e-05
0.000137735
0.00018931
0.000246229
0.000306885
0.000373481
0.000444281
0.000507513
0.000546913
0.000550595
0.000515491
0.000451437
0.00037544
0.000300904
0.00023643
0.000185924
0.000149293
0.000123983
0.000106731
9.46032e-05
8.5777e-05
7.88425e-05
7.29197e-05
6.75316e-05
6.24566e-05
5.76517e-05
5.39167e-05
5.54396e-05
7.02944e-05
0.00037735
0.00595188
0.00213134
0.0138263
0.0414618
0.0139321
0.00316217
0.000629373
0.000207836
0.00013262
0.000115972
0.000142413
0.000192899
0.000249274
0.000306362
0.00036718
0.00043632
0.000510644
0.000575258
0.00061047
0.000602796
0.000551869
0.00047074
0.000378314
0.000290781
0.000218168
0.000163977
0.000126772
0.000102633
8.73309e-05
7.73979e-05
7.0727e-05
6.57329e-05
6.15219e-05
5.7659e-05
5.39864e-05
5.05953e-05
4.82583e-05
5.1233e-05
9.54275e-05
0.00116032
0.0160862
0.00301882
0.013004
0.0283736
0.0144154
0.00572459
0.00210263
0.000833707
0.000413278
0.000276682
0.000278838
0.000314461
0.000355987
0.00040161
0.000458438
0.000530693
0.000609735
0.000673685
0.000698334
0.000670213
0.000593385
0.000486294
0.000372327
0.00027048
0.00019105
0.00013575
0.000100717
7.99386e-05
6.80352e-05
6.12612e-05
5.71875e-05
5.42473e-05
5.16937e-05
4.92247e-05
4.67934e-05
4.46369e-05
4.39081e-05
5.222e-05
0.000179928
0.00314708
0.0126188
0.00324565
0.0106899
0.01936
0.012039
0.00629896
0.00317298
0.00167355
0.000985904
0.000678422
0.000559577
0.000517016
0.000510188
0.000531308
0.000583659
0.000662854
0.000747628
0.000805129
0.000807109
0.000743617
0.000627367
0.000485368
0.000347031
0.000233272
0.000152444
0.000101846
7.36475e-05
5.88822e-05
5.14128e-05
4.80069e-05
4.62188e-05
4.49068e-05
4.36061e-05
4.21816e-05
4.0744e-05
3.99001e-05
4.21241e-05
6.15651e-05
0.000238053
0.00238689
0.0113941
0.00338155
0.00807321
0.0137718
0.00969262
0.00593268
0.0035687
0.00222651
0.00148993
0.00109211
0.000868628
0.000743096
0.000685614
0.000690097
0.000750913
0.000845542
0.0009332
0.00096909
0.000926079
0.000804984
0.000633877
0.000451113
0.00029232
0.000177091
0.00010703
6.94897e-05
5.25092e-05
4.43801e-05
4.05727e-05
3.91855e-05
3.86033e-05
3.81516e-05
3.75567e-05
3.67956e-05
3.62328e-05
3.7486e-05
4.71201e-05
0.000100264
0.000388573
0.00227221
0.00908106
0.00373819
0.00612452
0.0101682
0.00779168
0.0053125
0.00356994
0.0024688
0.00178756
0.00136784
0.00109261
0.000925781
0.000859169
0.000887118
0.000984045
0.00109948
0.00117168
0.00115156
0.00102712
0.000821002
0.000584943
0.000367442
0.000207868
0.000114368
7.20428e-05
5.21787e-05
4.27152e-05
3.79662e-05
3.5683e-05
3.48929e-05
3.46089e-05
3.44054e-05
3.41245e-05
3.39312e-05
3.49625e-05
4.23044e-05
7.94084e-05
0.000239891
0.000776824
0.00255952
0.00767408
0.00321761
0.00618135
0.00781429
0.00680578
0.00474015
0.00336594
0.0024625
0.00186573
0.00146229
0.00119449
0.00106452
0.00107073
0.00118174
0.00133228
0.00144151
0.00144189
0.00130245
0.00105136
0.000741059
0.000455676
0.000237681
0.000130957
8.17833e-05
5.98163e-05
4.88484e-05
4.26275e-05
3.88408e-05
3.66568e-05
3.56933e-05
3.53008e-05
3.51599e-05
3.52179e-05
3.59555e-05
3.98813e-05
5.78895e-05
0.000133379
0.00039895
0.00114129
0.00285497
0.00572866
0.00276511
0.00454517
0.00511534
0.00418604
0.00336251
0.00264036
0.00207064
0.00164945
0.00136208
0.00124479
0.0013006
0.00147948
0.00169014
0.00182965
0.00182224
0.00164167
0.00130417
0.000909613
0.000519177
0.000278553
0.000155377
0.000102207
7.89237e-05
6.68662e-05
5.89837e-05
5.31413e-05
4.88464e-05
4.6072e-05
4.47833e-05
4.46268e-05
4.52493e-05
4.66616e-05
4.95348e-05
5.70004e-05
8.10047e-05
0.000161924
0.000414332
0.00108498
0.00260404
0.00556241
0.00264142
0.00139891
0.0014296
0.00143249
0.00135411
0.00131229
0.0014231
0.00170736
0.00204393
0.00230963
0.00241126
0.00229819
0.00198547
0.00153584
0.000982626
0.000569614
0.000313336
0.000188575
0.000135983
0.000113776
0.000101813
9.30846e-05
8.56345e-05
7.92915e-05
7.45041e-05
7.18444e-05
7.16492e-05
7.41092e-05
7.87887e-05
8.56042e-05
9.49018e-05
0.000108991
0.000136718
0.000205395
0.000390312
0.000882481
0.00217614
0.00471704
0.00332519
0.00118796
0.0017168
0.00195482
0.00231075
0.0027573
0.00316258
0.00334302
0.00331106
0.00309055
0.00270191
0.00213368
0.00151586
0.000981024
0.000578178
0.000345282
0.00023529
0.000190663
0.000171738
0.000161136
0.000152938
0.000145558
0.000138948
0.000133791
0.000131147
0.000132141
0.000137635
0.000148136
0.000163815
0.000184461
0.000210042
0.000241991
0.000286558
0.000362097
0.00051617
0.000888257
0.00231303
0.00397131
0.00362124
0.00741258
0.00806693
0.004812
0.00340669
0.00374041
0.00414894
0.00415934
0.00394623
0.00358902
0.00313391
0.0026287
0.00208748
0.00153899
0.0010535
0.000688637
0.000464397
0.000356421
0.000311531
0.000292735
0.000283475
0.000277658
0.000272728
0.000267537
0.000262026
0.000257285
0.000255312
0.000258363
0.000268248
0.000286094
0.000313182
0.000350754
0.000400968
0.000468486
0.000564328
0.00071237
0.000964574
0.00146958
0.00327081
0.00453592
0.00392705
0.0065008
0.00513082
0.00436487
0.00462136
0.00454563
0.00427955
0.0036989
0.0030513
0.00246415
0.00197037
0.00156721
0.00124474
0.00099317
0.000806343
0.000674201
0.000582256
0.000523129
0.000488364
0.000471232
0.00046702
0.000471855
0.000482217
0.000495063
0.000508269
0.000521054
0.000534163
0.000549739
0.000571101
0.000602636
0.000649795
0.000719542
0.000821368
0.000969277
0.00118492
0.00150264
0.00197017
0.00266098
0.004071
0.00630422
0.00409197
0.00536077
0.00337296
0.00332486
0.00362662
0.00389162
0.003563
0.00297306
0.00237257
0.00185953
0.00144594
0.00111642
0.000856937
0.000662106
0.000530484
0.000457357
0.000427293
0.00042038
0.000427787
0.000444344
0.000466618
0.000492005
0.000518532
0.000544917
0.000570677
0.000596194
0.000622681
0.000651971
0.000686247
0.00072799
0.000780512
0.000849266
0.00094374
0.00107946
0.00127865
0.00156775
0.00197235
0.00251398
0.0032066
0.00401764
0.00325919
)
;

boundaryField
{
    floor
    {
        Cmu             0.09;
        kappa           0.41;
        E               9.8;
        type            epsilonWallFunction;
        value           nonuniform List<scalar> 
36
(
0.000860517
8.94857e-05
0.000262407
0.000268797
0.000249723
0.000219906
0.000183946
0.000152247
0.000126463
0.00010586
8.9401e-05
7.62558e-05
6.56078e-05
5.6816e-05
4.93541e-05
4.27493e-05
3.6503e-05
3.18072e-05
2.35946e-05
2.35946e-05
4.80637e-05
7.07463e-05
9.43587e-05
0.000160194
0.000377767
0.000326347
0.000860517
0.0011291
0.000978554
0.000858226
8.94857e-05
0.000858226
0.000511922
0.00158359
0.00102828
0.00156506
)
;
    }
    ceiling
    {
        Cmu             0.09;
        kappa           0.41;
        E               9.8;
        type            epsilonWallFunction;
        value           nonuniform List<scalar> 
43
(
0.00536077
0.00337296
0.00332486
0.00362662
0.00389162
0.003563
0.00297306
0.00237257
0.00185953
0.00144594
0.00111642
0.000856937
0.000662106
0.000530484
0.000457357
0.000427293
0.00042038
0.000427787
0.000444344
0.000466618
0.000492005
0.000518532
0.000544917
0.000570677
0.000596194
0.000622681
0.000651971
0.000686247
0.00072799
0.000780512
0.000849266
0.00094374
0.00107946
0.00127865
0.00156775
0.00197235
0.00251398
0.0032066
0.00401764
0.00325919
0.00454517
0.00511534
0.00118796
)
;
    }
    sWall
    {
        Cmu             0.09;
        kappa           0.41;
        E               9.8;
        type            epsilonWallFunction;
        value           nonuniform List<scalar> 9(0.013004 0.0106899 0.00807321 0.00612452 0.00618135 0.00454517 0.00741258 0.0065008 0.00536077);
    }
    nWall
    {
        Cmu             0.09;
        kappa           0.41;
        E               9.8;
        type            epsilonWallFunction;
        value           nonuniform List<scalar> 
14
(
0.000326347
0.000554769
0.000917656
0.00324565
0.00338155
0.00373819
0.00321761
0.00276511
0.00264142
0.00332519
0.00362124
0.00392705
0.00409197
0.00325919
)
;
    }
    sideWalls
    {
        type            empty;
    }
    glass1
    {
        Cmu             0.09;
        kappa           0.41;
        E               9.8;
        type            epsilonWallFunction;
        value           nonuniform List<scalar> 9(0.00025311 0.000796952 0.0016305 0.00285324 0.00454547 0.00676273 0.00967078 0.0127573 0.0138263);
    }
    glass2
    {
        Cmu             0.09;
        kappa           0.41;
        E               9.8;
        type            epsilonWallFunction;
        value           nonuniform List<scalar> 2(0.00213134 0.00301882);
    }
    sun
    {
        Cmu             0.09;
        kappa           0.41;
        E               9.8;
        type            epsilonWallFunction;
        value           nonuniform List<scalar> 
14
(
0.00025311
0.00030635
0.000303029
0.000344237
0.000385144
0.000424998
0.000464488
0.000504803
0.000547673
0.000595817
0.000644257
0.000692612
0.000742532
0.000798821
)
;
    }
    Table_master
    {
        Cmu             0.09;
        kappa           0.41;
        E               9.8;
        type            epsilonWallFunction;
        value           nonuniform List<scalar> 9(0.000550784 0.000362052 0.000250331 0.000181052 0.000136103 0.000105792 8.46926e-05 6.9758e-05 5.94143e-05);
    }
    Table_slave
    {
        Cmu             0.09;
        kappa           0.41;
        E               9.8;
        type            epsilonWallFunction;
        value           nonuniform List<scalar> 9(0.000813862 0.000612253 0.000481393 0.000388006 0.000318682 0.000263945 0.000218445 0.000178749 0.000141612);
    }
    inlet
    {
        type            turbulentMixingLengthDissipationRateInlet;
        mixingLength    0.01;
        phi             phi;
        k               k;
        value           uniform 0.000471671;
    }
    outlet
    {
        type            zeroGradient;
    }
}


// ************************************************************************* //
