/*--------------------------------*- C++ -*----------------------------------*\
  =========                 |
  \\      /  F ield         | OpenFOAM: The Open Source CFD Toolbox
   \\    /   O peration     | Website:  https://openfoam.org
    \\  /    A nd           | Version:  6
     \\/     M anipulation  |
\*---------------------------------------------------------------------------*/
FoamFile
{
    version     2.0;
    format      ascii;
    class       volScalarField;
    location    "100";
    object      alphat;
}
// * * * * * * * * * * * * * * * * * * * * * * * * * * * * * * * * * * * * * //

dimensions      [1 -1 -1 0 0 0 0];

internalField   nonuniform List<scalar> 
459
(
0.000886651
0.000911001
0.00082232
0.000852197
0.000886078
0.000918526
0.000949465
0.000979662
0.00101042
0.00104048
0.00106427
0.00107948
0.00108388
0.00107552
0.00104866
0.000566481
0.000655987
0.000634886
0.000511407
0.000403031
0.000333833
0.000279741
0.000275105
0.000264171
0.000252366
0.000243209
0.000235076
0.000233318
0.000277046
0.000392692
0.000582027
0.00073179
0.000729369
0.00061682
0.00152882
0.00276561
0.00200588
0.00270087
0.00294907
0.00319493
0.00345004
0.00369105
0.00388463
0.00401753
0.00408315
0.0040366
0.00380445
0.00327001
0.00231241
0.00111013
0.000782616
0.000656623
0.00163145
0.00163618
0.0013972
0.00109417
0.000740377
0.000583645
0.000566286
0.000525823
0.000503177
0.000478207
0.000450139
0.000452659
0.000568746
0.00094592
0.00150746
0.0019426
0.0020002
0.000717208
0.00207333
0.00449554
0.0021267
0.00379933
0.00437562
0.00463785
0.00485809
0.0050445
0.00518637
0.00528175
0.0053156
0.00523905
0.00497249
0.00440621
0.00345856
0.00225301
0.00115342
0.00102887
0.00249161
0.00209451
0.00169798
0.00137609
0.00106596
0.000356005
0.00025925
0.000249886
0.000255374
0.000279088
0.00032572
0.000397772
0.000506012
0.00070555
0.00182025
0.00229586
0.00180641
0.000801414
0.00257632
0.0065804
0.00237512
0.00398597
0.00508696
0.00535719
0.00552136
0.00566228
0.00578668
0.00588913
0.00598789
0.00605082
0.00599915
0.00569754
0.00496941
0.00371829
0.00221686
0.00124176
0.00237401
0.00258521
0.0022896
0.00199462
0.00168284
0.00133772
0.00104118
0.00107456
0.00111752
0.0011651
0.00121367
0.00125993
0.00130433
0.00132583
0.00132859
0.00203331
0.00252943
0.00289304
0.00119141
0.00303467
0.00877939
0.00304343
0.00364881
0.00525235
0.00558124
0.00569622
0.00579002
0.00589271
0.00601316
0.00620722
0.00649604
0.00684327
0.00717223
0.0073706
0.0073232
0.00697256
0.0063396
0.00569949
0.00524105
0.00498174
0.00476434
0.00460581
0.00449793
0.00445749
0.00454697
0.00471118
0.00490809
0.00508598
0.00519909
0.00523355
0.00519307
0.00510079
0.00502074
0.00477162
0.00426036
0.00312214
0.00138922
0.00122174
0.0012462
0.00345794
0.0107013
0.00434902
0.00326881
0.00485369
0.00537724
0.00552102
0.0055758
0.00560475
0.00564546
0.00582938
0.00618957
0.00671365
0.00735207
0.00799627
0.00848937
0.00867149
0.00847648
0.00802197
0.00750643
0.0070568
0.00670795
0.00643603
0.00620932
0.00603155
0.00594765
0.00597337
0.00606194
0.00612915
0.00610259
0.00597229
0.00580488
0.00569461
0.00568325
0.00576158
0.00569942
0.00520235
0.00432621
0.00305551
0.00148806
0.00385141
0.0120696
0.00673067
0.00364374
0.0036875
0.00447634
0.00501094
0.00525947
0.00528588
0.00515655
0.00521901
0.0054588
0.0058976
0.00654178
0.0073238
0.00808176
0.0086115
0.00877432
0.00863215
0.00834098
0.00803801
0.00777571
0.00753711
0.00728667
0.0070203
0.00679975
0.00669638
0.00669341
0.00667618
0.00652101
0.0062043
0.00583951
0.00559217
0.00553533
0.00560331
0.00561595
0.00532365
0.00482166
0.0038118
0.00162637
0.00394232
0.0123304
0.00909053
0.00636902
0.00460265
0.00416909
0.00459811
0.0050477
0.00504121
0.00484157
0.00474872
0.0047862
0.00496942
0.00533852
0.00592722
0.00668025
0.00742006
0.00787434
0.00806027
0.00806481
0.00799766
0.00792499
0.00785759
0.0077761
0.00765947
0.00751953
0.00742472
0.00742859
0.0074471
0.00728757
0.00683237
0.0061415
0.00540149
0.00473017
0.00415392
0.00367943
0.00330322
0.00295211
0.0025903
0.0017866
0.00382143
0.00459199
0.00510247
0.00511976
0.00474672
0.00431825
0.00405868
0.00397355
0.0039654
0.00399693
0.00404679
0.00411087
0.00420027
0.00434622
0.00460101
0.00501046
0.0055469
0.00607918
0.00650275
0.00679183
0.00698523
0.00713126
0.00725824
0.00738018
0.00751458
0.0076828
0.00787986
0.00806666
0.0082945
0.00852129
0.00864588
0.00863502
0.00844882
0.00808327
0.00755999
0.0068406
0.00589645
0.00512153
0.00464859
0.00197809
0.00384938
0.00482908
0.00479336
0.00454051
0.00429159
0.00409973
0.00395639
0.00385296
0.0037786
0.0037226
0.00368016
0.00365661
0.00367064
0.00375379
0.0039369
0.00422189
0.00457463
0.00494604
0.00530103
0.00562484
0.00591522
0.00618029
0.00644679
0.00676404
0.00717653
0.00767263
0.00819226
0.00865499
0.00900411
0.00920004
0.00924192
0.00914761
0.00895891
0.00870344
0.00830383
0.00746053
0.00653975
0.00198323
0.00301137
0.00496071
0.00488333
0.00465486
0.0043964
0.00415004
0.00392703
0.00372605
0.00352212
0.00331487
0.00311783
0.0029415
0.00279604
0.00269358
0.00264917
0.00267851
0.00279242
0.00299025
0.0032568
0.003565
0.00388444
0.00419345
0.004491
0.00480414
0.00518318
0.00567263
0.00625831
0.00682456
0.00730979
0.00767434
0.00790627
0.0080063
0.00798052
0.00782249
0.00743398
0.00645283
0.00541814
0.00181905
0.00225043
0.0024636
0.00265967
0.00274498
0.0025023
0.00231715
0.00215352
0.00200629
0.00187357
0.00175342
0.00164765
0.00155325
0.00146673
0.00138636
0.00131152
0.00124233
0.00117942
0.00112371
0.00107618
0.00103769
0.00100878
0.000989537
0.000979457
0.000977564
0.000982846
0.000994996
0.00101522
0.00104648
0.00109201
0.0011602
0.00124984
0.0013553
0.00146648
0.00156987
0.00165041
0.00169263
0.00168194
0.00165008
0.00161497
0.00150123
)
;

boundaryField
{
    floor
    {
        type            compressible::alphatWallFunction;
        Prt             0.85;
        value           nonuniform List<scalar> 
29
(
0.00014905
7.92746e-05
9.26465e-05
8.94905e-05
7.08949e-05
5.41255e-05
4.31172e-05
3.42954e-05
3.35248e-05
3.17091e-05
2.97378e-05
2.81982e-05
2.68238e-05
2.65284e-05
3.38521e-05
5.25261e-05
8.1633e-05
0.000103808
0.000103443
8.68117e-05
8.68107e-05
0.000101636
0.000113892
0.000168904
0.000149048
7.92737e-05
9.27245e-05
0.000146258
0.000175806
)
;
    }
    ceiling
    {
        type            compressible::alphatWallFunction;
        Prt             0.85;
        value           nonuniform List<scalar> 
43
(
0.000309633
0.000336918
0.000361795
0.000372571
0.00034186
0.000318214
0.000297148
0.000278047
0.000260696
0.000244875
0.000230847
0.000218243
0.000206616
0.000195747
0.000185561
0.000176086
0.00016742
0.0001597
0.000153079
0.000147693
0.000143633
0.000140923
0.000139501
0.000139233
0.000139978
0.00014169
0.000144534
0.000148917
0.000155279
0.000164751
0.000177111
0.000191525
0.000206593
0.000220495
0.000231264
0.000236893
0.000235478
0.000231243
0.000226553
0.000211305
0.000505812
0.000598698
0.000405942
)
;
    }
    sWall
    {
        type            compressible::alphatWallFunction;
        Prt             0.85;
        value           uniform 0.000308509;
    }
    nWall
    {
        type            compressible::alphatWallFunction;
        Prt             0.85;
        value           nonuniform List<scalar> 6(0.000176161 0.000208964 0.000227607 0.000274639 0.000253166 0.00021093);
    }
    sideWalls
    {
        type            empty;
    }
    glass1
    {
        type            compressible::alphatWallFunction;
        Prt             0.85;
        value           nonuniform List<scalar> 9(0.000122425 0.000209568 0.000280467 0.000344338 0.000401504 0.000453567 0.000501414 0.000512547 0.000498183);
    }
    glass2
    {
        type            compressible::alphatWallFunction;
        Prt             0.85;
        value           nonuniform List<scalar> 2(0.00024692 0.000271992);
    }
    sun
    {
        type            compressible::alphatWallFunction;
        Prt             0.85;
        value           nonuniform List<scalar> 
14
(
0.000126178
0.000129628
0.000116926
0.000121222
0.000126072
0.000130697
0.000135088
0.000139358
0.000143692
0.000147912
0.000151242
0.000153365
0.000153978
0.000152809
)
;
    }
    heatsource1
    {
        type            compressible::alphatWallFunction;
        Prt             0.85;
        value           nonuniform List<scalar> 3(0.000196099 0.000173222 0.000176627);
    }
    heatsource2
    {
        type            compressible::alphatWallFunction;
        Prt             0.85;
        value           nonuniform List<scalar> 4(0.000157823 0.000111367 0.000111366 0.000163828);
    }
    Table_master
    {
        type            compressible::alphatWallFunction;
        Prt             0.85;
        value           nonuniform List<scalar> 9(4.68228e-05 3.10537e-05 2.94848e-05 3.03969e-05 3.43288e-05 4.19431e-05 5.34417e-05 7.0237e-05 0.000100109);
    }
    Table_slave
    {
        type            compressible::alphatWallFunction;
        Prt             0.85;
        value           nonuniform List<scalar> 9(0.00014819 0.000152866 0.00015886 0.000165468 0.000172184 0.000178553 0.00018464 0.000187577 0.000187949);
    }
    inlet
    {
        type            fixedValue;
        value           uniform 1.94e-05;
    }
    outlet
    {
        type            zeroGradient;
    }
}


// ************************************************************************* //
