/*--------------------------------*- C++ -*----------------------------------*\
  =========                 |
  \\      /  F ield         | OpenFOAM: The Open Source CFD Toolbox
   \\    /   O peration     | Website:  https://openfoam.org
    \\  /    A nd           | Version:  6
     \\/     M anipulation  |
\*---------------------------------------------------------------------------*/
FoamFile
{
    version     2.0;
    format      ascii;
    class       volScalarField;
    location    "100";
    object      epsilon;
}
// * * * * * * * * * * * * * * * * * * * * * * * * * * * * * * * * * * * * * //

dimensions      [0 2 -3 0 0 0 0];

internalField   nonuniform List<scalar> 
459
(
0.000155921
0.000168506
0.000123917
0.000137928
0.000155049
0.000172721
0.000190775
0.000209567
0.000229937
0.000251075
0.000268686
0.000280349
0.000283765
0.000277209
0.000256907
4.03918e-05
6.2715e-05
5.67937e-05
2.96768e-05
1.45387e-05
8.26704e-06
4.86334e-06
4.62253e-06
4.09185e-06
3.56682e-06
3.19143e-06
2.88094e-06
2.81744e-06
4.72363e-06
1.3467e-05
4.38333e-05
8.70925e-05
8.61783e-05
5.20923e-05
0.000801421
0.0018222
0.0001762
0.000109624
0.000112908
0.00012058
0.000129596
0.000140725
0.000155013
0.000172605
0.000191836
0.000211154
0.000227579
0.00023641
0.000240548
0.000304681
0.00010665
6.28774e-05
0.000142716
8.24442e-05
4.29784e-05
3.40915e-05
1.64769e-05
5.5754e-06
4.13164e-06
3.54588e-06
3.31014e-06
3.32468e-06
3.67565e-06
4.67454e-06
9.71598e-06
3.04286e-05
7.98773e-05
0.000115776
0.000147974
8.18617e-05
0.00200382
0.00592283
0.000432143
0.000129559
0.000116502
0.000123046
0.000133149
0.000146105
0.000162091
0.000180976
0.000200745
0.000219525
0.000235492
0.000247083
0.000255903
0.000275306
0.000341631
0.000241969
0.000227602
0.000115855
9.68012e-05
9.44161e-05
9.31864e-05
9.98812e-06
3.86256e-06
3.45831e-06
3.68882e-06
4.81101e-06
7.6442e-06
1.39229e-05
2.86823e-05
7.78943e-05
0.0001738
0.000205015
0.000210998
0.000114279
0.00385321
0.0126838
0.000995767
0.0001729
0.000127846
0.000133604
0.000146062
0.000161875
0.000180752
0.000202426
0.00022393
0.000242242
0.000256584
0.000267409
0.000276715
0.000291959
0.000332738
0.000426138
0.000208083
0.000123952
0.000106225
0.000115627
0.000138402
0.000178922
0.000251427
0.000276431
0.000310981
0.000352481
0.000398504
0.000445906
0.000494781
0.000519627
0.000522769
0.000347538
0.000278739
0.000331756
0.000376289
0.00631029
0.0213299
0.00203461
0.000249889
0.000143534
0.000147816
0.000165576
0.000189028
0.000217288
0.000249278
0.000278439
0.000300495
0.000316757
0.000328135
0.000331694
0.000322002
0.000295228
0.000241999
0.000157951
0.000119199
0.00010796
0.000111554
0.000122773
0.000138868
0.000158121
0.000180589
0.000211548
0.000250972
0.000297217
0.000347444
0.000400526
0.000451756
0.000492059
0.00049114
0.000455297
0.00039318
0.000389725
0.000595792
0.000405201
0.000430814
0.00935287
0.0290225
0.00375951
0.000428297
0.000184247
0.000177187
0.000200734
0.000236003
0.000280811
0.000332573
0.000367819
0.000387037
0.000399938
0.000412429
0.000421412
0.000414989
0.000379109
0.000313198
0.000237958
0.000181229
0.000150327
0.000139536
0.000140587
0.000149076
0.000164315
0.000189362
0.000227836
0.000280097
0.000343445
0.000413968
0.00049104
0.00058054
0.000691648
0.000828325
0.00100878
0.0012007
0.00121176
0.00100857
0.000643146
0.000732533
0.0129411
0.0323303
0.00715792
0.0013224
0.00046536
0.000328633
0.000330341
0.000371511
0.0004366
0.000504261
0.000516284
0.000503116
0.000487191
0.0004802
0.00048158
0.000477698
0.000448279
0.000388513
0.000314431
0.000249241
0.0002052
0.000181222
0.000171524
0.000172208
0.000183724
0.000211231
0.000260592
0.000333293
0.000423776
0.000523429
0.000630855
0.000761515
0.000947061
0.00121758
0.00158019
0.00197509
0.00218624
0.00216903
0.0011494
0.000959158
0.0139125
0.0417846
0.0178346
0.00787412
0.00326268
0.00153518
0.00105685
0.000934409
0.000929055
0.0008551
0.000756478
0.000662565
0.000586207
0.000532723
0.000502789
0.000488169
0.000465715
0.000421399
0.000361811
0.000302421
0.000255446
0.000224146
0.000206467
0.000200159
0.000206769
0.000234205
0.000294664
0.000396446
0.000530523
0.000671291
0.000789774
0.000868917
0.000920671
0.000965509
0.00101876
0.00109667
0.00121249
0.00135113
0.00149181
0.00127569
0.0127129
0.0219859
0.0168464
0.0117096
0.00766052
0.00488516
0.00319768
0.00223958
0.0016575
0.00126541
0.000994813
0.000803497
0.000665581
0.000566099
0.000496865
0.000451634
0.000420437
0.000390086
0.000354308
0.000315508
0.000280055
0.000252425
0.000234037
0.000224932
0.000226468
0.000244614
0.000293478
0.000399811
0.000571491
0.000791721
0.0010495
0.00133482
0.00161792
0.00185192
0.00200598
0.00206218
0.00205663
0.00221936
0.00273417
0.00173461
0.00900011
0.00896694
0.00649368
0.00451698
0.0031604
0.00226985
0.00168168
0.00128404
0.00100554
0.000805148
0.000657181
0.000545846
0.00046173
0.000399294
0.000354457
0.000322569
0.000298829
0.000279861
0.000264532
0.000253091
0.000246093
0.000244138
0.000248629
0.000263444
0.000297134
0.000364439
0.000477592
0.000636511
0.000836335
0.00106801
0.00131496
0.00155161
0.00175538
0.00191085
0.00193926
0.00162934
0.0019317
0.00174586
0.0061256
0.00688501
0.0050879
0.00372361
0.00273001
0.00202707
0.00153248
0.00118052
0.000927113
0.000740045
0.000598633
0.00048975
0.000405152
0.000339774
0.000290491
0.000255169
0.000232013
0.00021924
0.00021504
0.000217668
0.000225564
0.000237598
0.000253502
0.000274531
0.000304266
0.000348971
0.000415368
0.00050708
0.000629264
0.000782788
0.000958778
0.0011358
0.00128323
0.00136552
0.00132995
0.00119999
0.00146534
0.00134815
0.0025617
0.00335898
0.0042265
0.00465562
0.00352872
0.00280201
0.00224919
0.00181859
0.00148091
0.00121381
0.00100706
0.000843639
0.000710311
0.000599777
0.000507745
0.000431513
0.000369191
0.000319275
0.000280422
0.000251368
0.000230916
0.000217926
0.000211305
0.000210048
0.000213427
0.000221387
0.0002351
0.000257408
0.000292403
0.000350565
0.000438142
0.000558531
0.000707465
0.000867837
0.00100842
0.00108787
0.00106726
0.00100761
0.000944326
0.000758488
)
;

boundaryField
{
    floor
    {
        Cmu             0.09;
        kappa           0.41;
        E               9.8;
        type            epsilonWallFunction;
        value           nonuniform List<scalar> 
29
(
0.000256907
4.03918e-05
6.2715e-05
5.67937e-05
2.96768e-05
1.45387e-05
8.26704e-06
4.86334e-06
4.62253e-06
4.09185e-06
3.56682e-06
3.19143e-06
2.88094e-06
2.81744e-06
4.72363e-06
1.3467e-05
4.38333e-05
8.70925e-05
8.61783e-05
5.20923e-05
5.20923e-05
8.18617e-05
0.000114279
0.000376289
0.000256907
4.03918e-05
6.28774e-05
0.000241969
0.000426138
)
;
    }
    ceiling
    {
        Cmu             0.09;
        kappa           0.41;
        E               9.8;
        type            epsilonWallFunction;
        value           nonuniform List<scalar> 
43
(
0.0025617
0.00335898
0.0042265
0.00465562
0.00352872
0.00280201
0.00224919
0.00181859
0.00148091
0.00121381
0.00100706
0.000843639
0.000710311
0.000599777
0.000507745
0.000431513
0.000369191
0.000319275
0.000280422
0.000251368
0.000230916
0.000217926
0.000211305
0.000210048
0.000213427
0.000221387
0.0002351
0.000257408
0.000292403
0.000350565
0.000438142
0.000558531
0.000707465
0.000867837
0.00100842
0.00108787
0.00106726
0.00100761
0.000944326
0.000758488
0.0127129
0.0219859
0.0061256
)
;
    }
    sWall
    {
        Cmu             0.09;
        kappa           0.41;
        E               9.8;
        type            epsilonWallFunction;
        value           uniform 0.0025617;
    }
    nWall
    {
        Cmu             0.09;
        kappa           0.41;
        E               9.8;
        type            epsilonWallFunction;
        value           nonuniform List<scalar> 6(0.000430814 0.000732533 0.000959158 0.00174586 0.00134815 0.000758488);
    }
    sideWalls
    {
        type            empty;
    }
    glass1
    {
        Cmu             0.09;
        kappa           0.41;
        E               9.8;
        type            epsilonWallFunction;
        value           nonuniform List<scalar> 9(0.000155921 0.000801421 0.00200382 0.00385321 0.00631029 0.00935287 0.0129411 0.0139125 0.0127129);
    }
    glass2
    {
        Cmu             0.09;
        kappa           0.41;
        E               9.8;
        type            epsilonWallFunction;
        value           nonuniform List<scalar> 2(0.00127569 0.00173461);
    }
    sun
    {
        Cmu             0.09;
        kappa           0.41;
        E               9.8;
        type            epsilonWallFunction;
        value           nonuniform List<scalar> 
14
(
0.000155921
0.000168506
0.000123917
0.000137928
0.000155049
0.000172721
0.000190775
0.000209567
0.000229937
0.000251075
0.000268686
0.000280349
0.000283765
0.000277209
)
;
    }
    heatsource1
    {
        Cmu             0.09;
        kappa           0.41;
        E               9.8;
        type            epsilonWallFunction;
        value           nonuniform List<scalar> 3(0.000595792 0.000405201 0.000430814);
    }
    heatsource2
    {
        Cmu             0.09;
        kappa           0.41;
        E               9.8;
        type            epsilonWallFunction;
        value           nonuniform List<scalar> 4(0.000304681 0.00010665 0.00010665 0.000341631);
    }
    Table_master
    {
        Cmu             0.09;
        kappa           0.41;
        E               9.8;
        type            epsilonWallFunction;
        value           nonuniform List<scalar> 9(9.98812e-06 3.86256e-06 3.45831e-06 3.68882e-06 4.81101e-06 7.6442e-06 1.39229e-05 2.86823e-05 7.78943e-05);
    }
    Table_slave
    {
        Cmu             0.09;
        kappa           0.41;
        E               9.8;
        type            epsilonWallFunction;
        value           nonuniform List<scalar> 9(0.000251427 0.000276431 0.000310981 0.000352481 0.000398504 0.000445906 0.000494781 0.000519627 0.000522769);
    }
    inlet
    {
        type            turbulentMixingLengthDissipationRateInlet;
        mixingLength    0.01;
        phi             phi;
        k               k;
        value           uniform 0.000101881;
    }
    outlet
    {
        type            zeroGradient;
    }
}


// ************************************************************************* //
