/*--------------------------------*- C++ -*----------------------------------*\
  =========                 |
  \\      /  F ield         | OpenFOAM: The Open Source CFD Toolbox
   \\    /   O peration     | Website:  https://openfoam.org
    \\  /    A nd           | Version:  6
     \\/     M anipulation  |
\*---------------------------------------------------------------------------*/
FoamFile
{
    version     2.0;
    format      ascii;
    class       volScalarField;
    location    "100";
    object      nut;
}
// * * * * * * * * * * * * * * * * * * * * * * * * * * * * * * * * * * * * * //

dimensions      [0 2 -1 0 0 0 0];

internalField   nonuniform List<scalar> 
459
(
0.000760917
0.000780868
0.000704837
0.000730463
0.000759519
0.000787345
0.000813876
0.000839771
0.000866145
0.000891917
0.000912307
0.000925328
0.000929082
0.000921883
0.000898821
0.000484923
0.000561506
0.000543437
0.000437741
0.000344962
0.000285709
0.000239371
0.000235371
0.000226
0.000215896
0.000208061
0.000201105
0.000199608
0.00023703
0.00033602
0.000498167
0.00062636
0.00062424
0.000527906
0.00131317
0.00237113
0.00171958
0.00231546
0.00252836
0.00273926
0.00295809
0.00316483
0.00333089
0.0034449
0.00350113
0.00346109
0.00326181
0.00280332
0.00198212
0.000951431
0.000670511
0.00056212
0.00139658
0.00140059
0.00119605
0.00093659
0.000633583
0.000499284
0.000484335
0.000449704
0.000430331
0.000408981
0.000384991
0.000387179
0.000486558
0.000809485
0.00129063
0.00166297
0.00171202
0.000613833
0.00178233
0.00385547
0.00182351
0.00325786
0.00375232
0.0039775
0.00416666
0.00432679
0.00444865
0.00453058
0.00455957
0.00449367
0.00426459
0.00377834
0.00296513
0.00193115
0.000988466
0.000881039
0.00213361
0.00179369
0.00145422
0.00117853
0.000912771
0.000304523
0.000221704
0.000213692
0.00021839
0.000238684
0.000278594
0.000340278
0.000432975
0.000603948
0.00155909
0.00196567
0.00154636
0.000686011
0.00221638
0.00564536
0.00203692
0.00341864
0.00436344
0.00459578
0.00473715
0.00485852
0.00496564
0.00505377
0.00513852
0.00519221
0.00514723
0.00488752
0.00426183
0.00318791
0.00190006
0.00106406
0.00203398
0.00221526
0.00196221
0.00170955
0.00144239
0.00114661
0.000892446
0.000921052
0.000957867
0.000998635
0.00104025
0.00107988
0.0011179
0.00113628
0.00113861
0.0017424
0.00216715
0.00247819
0.00102053
0.00261248
0.00753456
0.00261062
0.00313008
0.00450636
0.00478932
0.00488876
0.00497
0.00505875
0.00516257
0.00532934
0.00557709
0.00587455
0.00615585
0.00632465
0.00628236
0.00598006
0.00543612
0.00488662
0.00449349
0.00427132
0.00408497
0.00394904
0.00385646
0.00382169
0.0038983
0.00403893
0.00420758
0.0043599
0.00445667
0.00448603
0.00445116
0.00437186
0.00430298
0.00408902
0.00365034
0.00267481
0.00119013
0.00104665
0.0010679
0.00297865
0.0091875
0.00373147
0.0028046
0.00416511
0.00461527
0.00473962
0.00478756
0.00481325
0.00484885
0.00500716
0.00531654
0.00576625
0.00631364
0.00686543
0.00728701
0.00744152
0.00727266
0.00688167
0.00643885
0.00605287
0.00575344
0.00552
0.00532533
0.0051726
0.00510035
0.00512206
0.00519763
0.00525488
0.0052318
0.00511989
0.00497624
0.00488158
0.00487167
0.00493859
0.00488498
0.00445865
0.00370722
0.00261798
0.00127501
0.00331917
0.0103681
0.00577777
0.00312713
0.00316494
0.00384268
0.00430248
0.00451683
0.00454048
0.00443021
0.00448439
0.00469063
0.00506756
0.00562054
0.00629142
0.00694106
0.00739429
0.00753245
0.00740905
0.00715816
0.00689746
0.00667186
0.0064667
0.0062514
0.00602243
0.0058327
0.00574343
0.00574022
0.00572484
0.00559137
0.00531966
0.00500692
0.00479497
0.00474637
0.00480484
0.00481591
0.00456548
0.00413492
0.00326717
0.00139378
0.00340023
0.0106077
0.00781458
0.00547154
0.00395274
0.00358022
0.00394908
0.00433595
0.00433135
0.00416059
0.00408128
0.00411374
0.0042713
0.0045884
0.00509393
0.00574025
0.00637467
0.00676356
0.00692193
0.00692468
0.00686607
0.00680292
0.00674441
0.00667387
0.00657316
0.00645235
0.00637012
0.00637242
0.00638734
0.0062499
0.0058594
0.0052672
0.00463299
0.00405763
0.00356368
0.00315691
0.00283434
0.00253323
0.00222285
0.0015332
0.00329955
0.00396054
0.00439782
0.00440914
0.00408498
0.00371441
0.0034901
0.00341641
0.00340918
0.00343619
0.00347905
0.00353416
0.00361101
0.00373641
0.00395527
0.00430691
0.00476746
0.00522414
0.00558721
0.00583463
0.00599985
0.00612444
0.00623273
0.00633675
0.00645147
0.00659514
0.00676337
0.00692249
0.00711668
0.00731015
0.00741637
0.00740688
0.00724735
0.00693426
0.00648601
0.0058695
0.00505999
0.00439551
0.00399014
0.00169852
0.00330591
0.00415344
0.00412378
0.00390593
0.00369136
0.00352603
0.00340257
0.00331348
0.0032494
0.00320113
0.00316452
0.00314415
0.00315608
0.00322739
0.00338458
0.00362926
0.00393204
0.00425075
0.00455523
0.00483284
0.00508169
0.00530878
0.00553707
0.00580888
0.00616234
0.00658736
0.00703233
0.00742834
0.00772683
0.00789399
0.00792926
0.00784804
0.00768617
0.00746719
0.00712455
0.00640124
0.00561159
0.00170205
0.00258675
0.00426631
0.00420058
0.00400409
0.00378161
0.00356955
0.00337761
0.00320464
0.00302915
0.00285081
0.00268126
0.00252952
0.00240434
0.00231613
0.00227783
0.00230293
0.0024007
0.00257058
0.00279946
0.00306409
0.0033383
0.00360349
0.00385877
0.00412739
0.00445253
0.00487239
0.00537471
0.00586014
0.00627582
0.00658779
0.00678593
0.00687102
0.00684835
0.00671241
0.00637888
0.00553704
0.00464943
0.00156124
0.00193439
0.00211725
0.00228577
0.00236065
0.00215234
0.0019931
0.00185232
0.00172564
0.00161144
0.00150807
0.00141706
0.00133584
0.0012614
0.00119224
0.00112784
0.00106831
0.00101417
0.000966231
0.000925322
0.000892183
0.000867287
0.000850697
0.000841982
0.000840301
0.000844783
0.000855162
0.000872478
0.000899255
0.000938293
0.000996775
0.00107366
0.00116409
0.00125941
0.001348
0.00141699
0.00145309
0.00144382
0.00141638
0.00138617
0.00128861
)
;

boundaryField
{
    floor
    {
        type            nutkWallFunction;
        Cmu             0.09;
        kappa           0.41;
        E               9.8;
        value           nonuniform List<scalar> 
29
(
0.000108733
5.78137e-05
6.75474e-05
6.52488e-05
5.17072e-05
3.94909e-05
3.14677e-05
2.50347e-05
2.44705e-05
2.3146e-05
2.17088e-05
2.05863e-05
1.95844e-05
1.93694e-05
2.47089e-05
3.83176e-05
5.95249e-05
7.56705e-05
7.53997e-05
6.32916e-05
6.32916e-05
7.4086e-05
8.30185e-05
0.000123135
0.000108733
5.78136e-05
6.76121e-05
0.000106614
0.000128204
)
;
    }
    ceiling
    {
        type            nutkWallFunction;
        Cmu             0.09;
        kappa           0.41;
        E               9.8;
        value           nonuniform List<scalar> 
43
(
0.000226257
0.000246152
0.000264326
0.000272369
0.000249962
0.000232675
0.000217269
0.000203299
0.000190609
0.000179038
0.000168779
0.000159561
0.000151057
0.000143108
0.000135658
0.000128728
0.000122389
0.000116742
0.000111899
0.000107958
0.000104986
0.000103
0.000101956
0.000101755
0.000102293
0.000103536
0.000105607
0.000108801
0.000113438
0.000120345
0.000129357
0.000139866
0.000150847
0.000160976
0.000168817
0.00017291
0.000171866
0.000168766
0.000165336
0.000154219
0.000371185
0.000438893
0.000296435
)
;
    }
    sWall
    {
        type            nutkWallFunction;
        Cmu             0.09;
        kappa           0.41;
        E               9.8;
        value           uniform 0.000226315;
    }
    nWall
    {
        type            nutkWallFunction;
        Cmu             0.09;
        kappa           0.41;
        E               9.8;
        value           nonuniform List<scalar> 6(0.000128662 0.000152556 0.000166169 0.000200701 0.000185041 0.000154232);
    }
    sideWalls
    {
        type            empty;
    }
    glass1
    {
        type            nutkWallFunction;
        Cmu             0.09;
        kappa           0.41;
        E               9.8;
        value           nonuniform List<scalar> 9(9.21513e-05 0.000157156 0.000209861 0.000257261 0.00029965 0.000338235 0.000373677 0.000382069 0.000371676);
    }
    glass2
    {
        type            nutkWallFunction;
        Cmu             0.09;
        kappa           0.41;
        E               9.8;
        value           nonuniform List<scalar> 2(0.000181942 0.000200396);
    }
    sun
    {
        type            nutkWallFunction;
        Cmu             0.09;
        kappa           0.41;
        E               9.8;
        value           nonuniform List<scalar> 
14
(
9.21637e-05
9.45823e-05
8.53223e-05
8.84553e-05
9.19921e-05
9.53642e-05
9.85663e-05
0.00010168
0.000104839
0.000107916
0.000110342
0.000111888
0.000112332
0.000111477
)
;
    }
    heatsource1
    {
        type            nutkWallFunction;
        Cmu             0.09;
        kappa           0.41;
        E               9.8;
        value           nonuniform List<scalar> 3(0.000142796 0.000126137 0.000128651);
    }
    heatsource2
    {
        type            nutkWallFunction;
        Cmu             0.09;
        kappa           0.41;
        E               9.8;
        value           nonuniform List<scalar> 4(0.000114971 8.11011e-05 8.11011e-05 0.000119338);
    }
    Table_master
    {
        type            nutkWallFunction;
        Cmu             0.09;
        kappa           0.41;
        E               9.8;
        value           nonuniform List<scalar> 9(3.40443e-05 2.25731e-05 2.14323e-05 2.20957e-05 2.49553e-05 3.04938e-05 3.88602e-05 5.10848e-05 7.28397e-05);
    }
    Table_slave
    {
        type            nutkWallFunction;
        Cmu             0.09;
        kappa           0.41;
        E               9.8;
        value           nonuniform List<scalar> 9(0.000107966 0.000111373 0.000115739 0.000120552 0.000125442 0.00013008 0.00013451 0.000136645 0.000136911);
    }
    inlet
    {
        type            calculated;
        value           uniform 0.000100623;
    }
    outlet
    {
        type            calculated;
        value           nonuniform List<scalar> 2(0.00193439 0.00211725);
    }
}


// ************************************************************************* //
