/*--------------------------------*- C++ -*----------------------------------*\
  =========                 |
  \\      /  F ield         | OpenFOAM: The Open Source CFD Toolbox
   \\    /   O peration     | Website:  https://openfoam.org
    \\  /    A nd           | Version:  6
     \\/     M anipulation  |
\*---------------------------------------------------------------------------*/
FoamFile
{
    version     2.0;
    format      ascii;
    class       surfaceScalarField;
    location    "100";
    object      phi;
}
// * * * * * * * * * * * * * * * * * * * * * * * * * * * * * * * * * * * * * //

dimensions      [1 0 -1 0 0 0 0];

internalField   nonuniform List<scalar> 
852
(
-0.00248581
0.00255397
-0.00260096
0.000115282
-0.00280753
0.000206699
-0.00308916
0.000281769
-0.00336565
0.000276619
-0.00359739
0.000231876
-0.00375861
0.000161359
-0.00382731
6.88436e-05
-0.00378231
-4.48558e-05
-0.00360207
-0.000180097
-0.00327
-0.000331916
-0.00277858
-0.000491267
-0.0021125
-0.000665928
-0.00120378
-0.000908563
-0.00120058
-0.000674538
0.000679822
-0.000517208
-0.000157266
-0.000128505
-0.000388635
0.000125962
-0.000254396
0.000125782
2.34652e-07
-9.6412e-05
0.000222221
-0.000199031
0.000102622
-9.66345e-05
-0.000102408
1.75281e-05
-0.00011417
0.0001075
-8.99699e-05
0.000187473
-7.99655e-05
0.000253069
-6.55814e-05
0.000267045
-1.39521e-05
0.000191993
7.50806e-05
8.19259e-05
0.0001101
0.000213035
-0.000131031
0.000594418
-0.000381276
0.000773774
-0.000179237
0.000778913
-0.00180488
0.00453327
-0.00234791
0.000658447
-0.00275494
0.000613865
-0.00309783
0.000624795
-0.00340244
0.000581366
-0.00365479
0.000484372
-0.00383722
0.000343932
-0.00393195
0.000163726
-0.00392216
-5.44951e-05
-0.00379378
-0.000308318
-0.00353342
-0.000592118
-0.00313101
-0.00089351
-0.00258645
-0.00121032
-0.00195871
-0.00153613
-0.00136856
-0.00179056
0.000279213
-0.00164765
0.000279311
0.000748961
-5.49097e-05
0.000420946
0.000170837
-2.05673e-05
5.29753e-05
-0.00013734
-0.000137511
1.42899e-05
-0.000151278
1.03548e-05
0.000226249
-8.0659e-05
0.000193672
-8.21595e-05
-0.000100908
-8.54379e-05
-0.000110892
-7.91326e-05
-9.62707e-05
-6.57834e-05
-9.33032e-05
-4.61877e-05
-8.51561e-05
-3.26119e-05
-2.75005e-05
-5.57138e-05
9.82372e-05
-9.91711e-05
0.000153644
8.30393e-05
-0.000313155
0.000280778
-0.000578929
0.000270669
-0.000169024
0.00106328
-0.00134404
0.00613512
-0.00206895
0.00138349
-0.00257308
0.00111814
-0.00295365
0.0010055
-0.00328157
0.000909427
-0.00355766
0.000760609
-0.00377063
0.000557053
-0.00390634
0.000299593
-0.00395139
-9.28548e-06
-0.00389789
-0.000361655
-0.0037474
-0.000742442
-0.00351044
-0.0011303
-0.00321212
-0.00150847
-0.00289865
-0.00184943
-0.00261162
-0.00207741
-0.00217968
-0.00207942
-0.00190019
-0.00106305
0.00102506
-0.00126214
0.000370072
-0.00129297
8.39603e-05
-0.00125091
-0.000179411
-0.00102748
-0.000374539
-0.000239182
-0.000561893
-4.52717e-05
-0.000146011
-0.000256735
-0.000352824
-0.000445918
-0.000530828
-0.000558042
-0.000459484
-0.0003055
-9.47843e-05
-0.000523815
-0.000787244
0.000113596
-0.0012439
0.000287724
-0.000159813
-0.00101498
0.00747623
-0.0018076
0.00217624
-0.00230867
0.00161935
-0.00268753
0.00138451
-0.00301086
0.0012329
-0.00328592
0.00103582
-0.00350762
0.000778917
-0.00366527
0.000457391
-0.0037473
7.29171e-05
-0.00374995
-0.000358844
-0.00369323
-0.000798993
-0.00361414
-0.00120922
-0.00355979
-0.00156264
-0.0035801
-0.00182894
-0.00369738
-0.00195996
-0.0038926
-0.00188403
-0.00442564
-0.00136698
-0.00381468
-0.00059455
-0.00290883
0.000119375
-0.00275818
0.000219573
-0.00270494
3.08655e-05
-0.00270566
-0.000178547
-0.00273361
-0.000346447
-0.00289134
-0.000404037
-0.00257716
-0.000314222
-0.00225435
-0.000322848
-0.00187195
-0.000382452
-0.00140848
-0.000463528
-0.000851755
-0.000556785
-0.000204706
-0.000647108
0.000484424
-0.000689182
0.00112169
-0.000637306
0.00165513
-0.000533487
0.00151427
-0.00038285
0.00148914
0.000138817
0.00120148
0.000575473
0.00106231
-0.000762474
0.00862327
-0.00157543
0.00298933
-0.00198084
0.00202491
-0.002313
0.00171681
-0.0025901
0.00151015
-0.00281811
0.00126397
-0.00299835
0.000959318
-0.00312443
0.00058362
-0.00318667
0.000135326
-0.00318049
-0.000364863
-0.00313803
-0.00084128
-0.00310853
-0.00123855
-0.00313142
-0.00153958
-0.00322692
-0.00173325
-0.00339196
-0.00179474
-0.00360874
-0.00166707
-0.00371003
-0.00126551
-0.00357531
-0.000729098
-0.00316115
-0.000294609
-0.00280409
-0.000137327
-0.00259544
-0.00017763
-0.00249399
-0.000279854
-0.0024584
-0.00038191
-0.00242606
-0.000436268
-0.00227712
-0.000463059
-0.00207025
-0.000529617
-0.00181378
-0.000638839
-0.00150191
-0.000775311
-0.00114008
-0.00091852
-0.000745825
-0.00104126
-0.000331414
-0.00110346
0.000100736
-0.0010693
0.000501018
-0.000933599
0.000821263
-0.000702918
0.00126364
-0.000303389
0.00168291
0.000156364
0.00233272
0.000412667
0.00152222
0.000810452
-0.000291467
0.00181361
-0.000235781
-0.000700722
0.00976012
-0.00147563
0.00376437
-0.00160423
0.00215364
-0.00183253
0.00194526
-0.00203453
0.00171229
-0.00217517
0.00140475
-0.00226489
0.0010492
-0.00230603
0.000624914
-0.00229119
0.000120639
-0.00222169
-0.0004342
-0.00215065
-0.000912159
-0.0021262
-0.00126283
-0.00217193
-0.00149368
-0.002289
-0.001616
-0.00245956
-0.00162401
-0.00263717
-0.00148928
-0.00270679
-0.0011957
-0.0026131
-0.000822613
-0.00239193
-0.000515616
-0.00217278
-0.000356314
-0.00202769
-0.000322572
-0.00195472
-0.000352682
-0.00193261
-0.000403894
-0.0019172
-0.00045156
-0.00187346
-0.000506703
-0.00180486
-0.000598132
-0.00171485
-0.000728774
-0.00160585
-0.000884219
-0.00148624
-0.00103802
-0.00136797
-0.00115939
-0.00125498
-0.00121627
-0.00113886
-0.00118519
-0.00100483
-0.00106737
-0.000810544
-0.000896904
-0.000371601
-0.000741991
0.000483597
-0.000698408
0.00159585
-0.000699137
0.00237677
2.98627e-05
0.00271027
0.00148035
0.00253469
-0.00096626
0.0112093
-0.00128215
0.0040804
-0.000924277
0.00179591
-0.00106572
0.00208685
-0.00123995
0.00188667
-0.00128935
0.00145429
-0.00125184
0.00101185
-0.00115745
0.000530673
-0.00100914
-2.75202e-05
-0.000857049
-0.000586143
-0.000772975
-0.000996076
-0.000775002
-0.00126064
-0.000861598
-0.00140692
-0.00101779
-0.00145964
-0.00121349
-0.00142813
-0.00139728
-0.00130531
-0.00150424
-0.00108857
-0.00149749
-0.000829187
-0.00140983
-0.0006031
-0.00130725
-0.000458735
-0.00123651
-0.000393153
-0.00121025
-0.00037879
-0.00122324
-0.000390773
-0.00125971
-0.000414978
-0.00131071
-0.0004556
-0.00138181
-0.000526952
-0.00147982
-0.00063068
-0.00161316
-0.000750796
-0.00179409
-0.00085697
-0.00203028
-0.000923012
-0.00231161
-0.00093469
-0.00260741
-0.000889057
-0.0028756
-0.000798793
-0.00307096
-0.00070112
-0.00315729
-0.00065519
-0.00308309
-0.000772101
-0.00255484
-0.00122691
-0.000658691
-0.00186585
0.00133241
-0.000510222
0.0039329
0.00172385
0.0100242
0.00208051
0.00372387
0.00153567
0.00234089
0.000959215
0.00266344
0.0005447
0.00230133
0.000402087
0.00159705
0.000477304
0.000936779
0.00068452
0.000323604
0.000914926
-0.000257781
0.00102274
-0.000693807
0.00100987
-0.000983054
0.00090356
-0.00115419
0.00072757
-0.00123077
0.000500195
-0.0012321
0.000245369
-0.00117313
2.92778e-06
-0.0010627
-0.000177268
-0.000908202
-0.000270121
-0.000736158
-0.000295937
-0.000577109
-0.000294335
-0.000460166
-0.000297132
-0.000390191
-0.000319526
-0.000356241
-0.00036579
-0.000344366
-0.000436753
-0.000343886
-0.000540271
-0.000351971
-0.000695616
-0.000371514
-0.000924963
-0.000401249
-0.00125058
-0.000425087
-0.0016997
-0.000407717
-0.00229771
-0.000324795
-0.0030452
-0.000186908
-0.00389771
-3.61716e-05
-0.00478721
9.11051e-05
-0.00565828
0.00017034
-0.00646177
0.000148674
-0.00719399
-3.95391e-05
-0.00802813
-0.000392435
-0.00896922
-0.000924429
-0.00756232
-0.0019168
-0.00329399
0.0106235
0.0143455
0.0106222
0.00606432
0.00834712
0.00493868
0.0066797
0.0039689
0.0055583
0.0027186
0.0048623
0.00163291
0.00438058
0.000805469
0.00394136
0.000181586
0.00352893
-0.000281234
0.00314816
-0.000602144
0.00279029
-0.000796157
0.00244578
-0.00088611
0.00211015
-0.000896322
0.00178601
-0.00084883
0.00148653
-0.000763047
0.00123458
-0.000656082
0.00104351
-0.000544912
0.000910438
-0.000443865
0.000815676
-0.000365231
0.00073833
-0.000312674
0.000664519
-0.000282266
0.000587078
-0.000266769
0.000501719
-0.000258383
0.000400712
-0.000250834
0.000268632
-0.000239319
8.60945e-05
-0.000218608
-0.000154661
-0.000184221
-0.000436094
-0.00012615
-0.00072377
-3.69501e-05
-0.000994042
8.35763e-05
-0.00126287
0.000232899
-0.00156013
0.000388617
-0.0018932
0.000503659
-0.002269
0.000524709
-0.00273064
0.000422318
-0.00332348
0.000200596
-0.00391031
-0.000337402
-0.00344088
-0.00238603
-0.00637968
0.00435274
0.00394669
0.00449283
0.0047987
0.00506887
0.00339298
0.0053571
0.0024305
0.00540533
0.00158481
0.00533589
0.000875052
0.00517025
0.000347363
0.00490872
-1.95686e-05
0.00457435
-0.000267626
0.00420267
-0.000424339
0.00382245
-0.000505739
0.00345371
-0.000527433
0.00310954
-0.000504508
0.00279825
-0.000451594
0.00252553
-0.0003832
0.00229378
-0.000312997
0.00210169
-0.000251604
0.0019422
-0.000205569
0.00180621
-0.000176505
0.00168619
-0.000162076
0.00157729
-0.000157709
0.00147657
-0.000157505
0.00138087
-0.000154984
0.00128551
-0.000143823
0.0011858
-0.00011877
0.00107911
-7.7411e-05
0.000972943
-1.98591e-05
0.000884948
5.11798e-05
0.000823519
0.000145148
0.000796444
0.000260138
0.000807864
0.00037739
0.000851432
0.000460308
0.000915889
0.000460481
0.00101065
0.000327785
0.00122645
-1.49836e-05
0.00158369
-0.000694415
0.00142565
-0.00222776
-0.00487831
-0.00024527
0.00419814
0.00197247
0.00258107
0.0033103
0.00205528
0.00421737
0.00152355
0.00481116
0.000991159
0.00511806
0.000568277
0.00520356
0.000262001
0.0051292
5.49289e-05
0.00494655
-8.48379e-05
0.00469523
-0.000172875
0.0044098
-0.000220164
0.00411778
-0.000235267
0.00383931
-0.000225886
0.00358735
-0.000199482
0.00336786
-0.00016356
0.0031806
-0.000125572
0.00302119
-9.20347e-05
0.00288333
-6.75351e-05
0.00276101
-5.40185e-05
0.0026499
-5.07881e-05
0.00254745
-5.50983e-05
0.00245291
-6.27909e-05
0.00236716
-6.90707e-05
0.00229283
-6.93405e-05
0.00223391
-5.9705e-05
0.00219407
-3.74311e-05
0.00217687
-2.52434e-06
0.00219091
3.72782e-05
0.00224587
9.03167e-05
0.00235089
0.000155257
0.00250784
0.000220586
0.00270268
0.000265648
0.00290136
0.000261999
0.00305314
0.000176208
0.0030726
-3.42181e-05
0.00283282
-0.000454406
0.00184098
-0.00123572
-0.00294788
-0.00563916
-0.00724828
-0.00304323
-0.000457415
0.00160234
0.00313059
0.00412674
0.00470035
0.00496805
0.00502905
0.00495066
0.00478464
0.00457175
0.00434421
0.00412654
0.00393578
0.00378149
0.00366576
0.00358414
0.00352759
0.0034851
0.00344638
0.00340384
0.00335407
0.00329846
0.00324296
0.00319746
0.0031745
0.00318664
0.00323863
0.00334362
0.00351344
0.00374851
0.0040286
0.00430509
0.00449597
0.00447684
0.00403803
0.00281842
)
;

boundaryField
{
    floor
    {
        type            calculated;
        value           nonuniform List<scalar> 
29
(
0
0
0
0
0
0
0
0
0
0
0
0
0
0
0
0
0
0
0
0
-5.01903e-06
-1.35821e-05
-2.07045e-05
-2.05507e-05
-3.0334e-06
-5.22309e-06
-1.41484e-05
-1.67727e-05
-1.62407e-05
)
;
    }
    ceiling
    {
        type            calculated;
        value           nonuniform List<scalar> 
43
(
-7.10291e-06
-7.22088e-06
-6.80039e-06
-4.63648e-06
-4.35649e-06
-4.56864e-06
-4.86725e-06
-5.20274e-06
-5.55931e-06
-5.93391e-06
-6.31697e-06
-6.71367e-06
-7.13355e-06
-7.58267e-06
-8.06431e-06
-8.57842e-06
-9.12104e-06
-9.68418e-06
-1.02565e-05
-1.08249e-05
-1.13766e-05
-1.19017e-05
-1.23949e-05
-1.28556e-05
-1.32856e-05
-1.36826e-05
-1.40342e-05
-1.43161e-05
-1.45052e-05
-1.4561e-05
-1.45172e-05
-1.44247e-05
-1.43342e-05
-1.42881e-05
-1.43261e-05
-1.45032e-05
-1.49039e-05
-1.54103e-05
-1.59227e-05
-1.65752e-05
4.30267e-06
1.99889e-06
-6.09668e-06
)
;
    }
    sWall
    {
        type            calculated;
        value           uniform -0.000207086;
    }
    nWall
    {
        type            calculated;
        value           nonuniform List<scalar> 6(-5.57117e-05 -5.99847e-05 -6.55326e-05 -7.55021e-05 -8.92378e-05 -0.000112681);
    }
    sideWalls
    {
        type            empty;
        value           nonuniform 0();
    }
    glass1
    {
        type            calculated;
        value           nonuniform List<scalar> 9(-6.80332e-05 -0.000174293 -0.000257684 -0.000326003 -0.000384442 -0.000436009 -0.000482787 -0.000538659 -0.000603503);
    }
    glass2
    {
        type            calculated;
        value           nonuniform List<scalar> 2(-0.000335093 -0.000354965);
    }
    sun
    {
        type            calculated;
        value           uniform 0;
    }
    heatsource1
    {
        type            calculated;
        value           nonuniform List<scalar> 3(2.05733e-07 2.0604e-07 2.06675e-07);
    }
    heatsource2
    {
        type            calculated;
        value           nonuniform List<scalar> 4(5.14894e-08 5.17004e-08 0 0);
    }
    Table_master
    {
        type            calculated;
        value           nonuniform List<scalar> 9(-1.55628e-07 -1.55755e-07 -1.55727e-07 -1.55688e-07 -1.55637e-07 -1.55572e-07 -1.55504e-07 -1.55418e-07 -1.55291e-07);
    }
    Table_slave
    {
        type            calculated;
        value           nonuniform List<scalar> 9(1.54001e-07 1.54107e-07 1.54209e-07 1.54331e-07 1.54481e-07 1.54665e-07 1.54724e-07 1.54591e-07 1.54417e-07);
    }
    inlet
    {
        type            calculated;
        value           uniform -0.00223503;
    }
    outlet
    {
        type            calculated;
        value           nonuniform List<scalar> 2(0.00585345 0.00161644);
    }
}


// ************************************************************************* //
