// -*- C++ -*-
// File generated by PyFoam - sorry for the ugliness

FoamFile
{
 version 2.0;
 format ascii;
 class volScalarField;
 location "100";
 object T;
}

dimensions [ 0 0 0 1 0 0 0 ];

internalField nonuniform List<scalar> 459
(
  302.246
  301.88
  301.873
  301.88
  301.886
  301.891
  301.895
  301.898
  301.901
  301.903
  301.901
  301.897
  301.889
  301.878
  301.867
  301.483
  301.464
  301.46
  301.458
  301.445
  301.419
  301.364
  301.321
  301.301
  301.294
  301.292
  301.294
  301.303
  301.319
  301.363
  301.444
  301.449
  301.425
  301.421
  302.504
  301.948
  301.913
  301.925
  301.939
  301.952
  301.963
  301.972
  301.979
  301.983
  301.98
  301.969
  301.949
  301.918
  301.878
  301.835
  301.733
  301.494
  301.481
  301.471
  301.477
  301.461
  301.382
  301.277
  301.215
  301.199
  301.195
  301.199
  301.21
  301.236
  301.289
  301.384
  301.524
  301.486
  301.439
  301.419
  302.743
  302.031
  301.965
  301.983
  302.007
  302.03
  302.05
  302.067
  302.079
  302.087
  302.084
  302.068
  302.036
  301.989
  301.929
  301.862
  301.807
  301.571
  301.573
  301.593
  301.616
  301.612
  301.563
  301.245
  301.17
  301.164
  301.17
  301.188
  301.22
  301.27
  301.341
  301.459
  301.645
  301.523
  301.475
  301.461
  302.963
  302.125
  302.02
  302.041
  302.077
  302.113
  302.146
  302.176
  302.198
  302.211
  302.211
  302.193
  302.155
  302.097
  302.021
  301.932
  301.839
  301.769
  301.725
  301.77
  301.81
  301.835
  301.847
  301.852
  301.857
  301.855
  301.853
  301.85
  301.845
  301.839
  301.829
  301.818
  301.806
  301.781
  301.726
  301.666
  301.655
  303.165
  302.225
  302.076
  302.094
  302.14
  302.189
  302.238
  302.282
  302.319
  302.343
  302.352
  302.34
  302.307
  302.253
  302.183
  302.105
  302.03
  301.97
  301.932
  301.927
  301.938
  301.942
  301.94
  301.935
  301.927
  301.918
  301.907
  301.895
  301.883
  301.87
  301.858
  301.846
  301.832
  301.813
  301.78
  301.734
  301.701
  301.69
  301.689
  301.771
  303.339
  302.334
  302.145
  302.14
  302.19
  302.249
  302.309
  302.367
  302.419
  302.459
  302.48
  302.479
  302.456
  302.411
  302.348
  302.274
  302.2
  302.137
  302.093
  302.066
  302.051
  302.04
  302.029
  302.016
  302
  301.982
  301.962
  301.94
  301.918
  301.901
  301.889
  301.88
  301.873
  301.862
  301.848
  301.827
  301.808
  301.764
  301.724
  301.731
  303.477
  302.497
  302.286
  302.215
  302.239
  302.293
  302.355
  302.419
  302.483
  302.539
  302.574
  302.588
  302.58
  302.551
  302.503
  302.438
  302.367
  302.301
  302.246
  302.205
  302.174
  302.151
  302.131
  302.11
  302.088
  302.061
  302.029
  301.994
  301.962
  301.94
  301.931
  301.934
  301.941
  301.95
  301.961
  301.976
  301.991
  301.986
  301.828
  301.781
  303.713
  302.937
  302.708
  302.513
  302.411
  302.395
  302.429
  302.48
  302.549
  302.605
  302.64
  302.659
  302.664
  302.655
  302.628
  302.584
  302.522
  302.46
  302.402
  302.352
  302.31
  302.276
  302.247
  302.22
  302.192
  302.158
  302.117
  302.068
  302.023
  301.994
  301.988
  302.004
  302.034
  302.067
  302.098
  302.126
  302.15
  302.168
  302.181
  302.189
  304.036
  303.705
  303.497
  303.251
  303.036
  302.886
  302.796
  302.753
  302.734
  302.725
  302.725
  302.726
  302.725
  302.719
  302.706
  302.681
  302.645
  302.599
  302.549
  302.499
  302.452
  302.411
  302.374
  302.341
  302.309
  302.275
  302.233
  302.18
  302.124
  302.078
  302.051
  302.043
  302.051
  302.072
  302.102
  302.137
  302.174
  302.209
  302.249
  302.357
  302.404
  302.852
  302.93
  302.906
  302.87
  302.844
  302.827
  302.814
  302.803
  302.792
  302.781
  302.77
  302.756
  302.74
  302.718
  302.69
  302.656
  302.618
  302.578
  302.538
  302.5
  302.464
  302.429
  302.394
  302.356
  302.312
  302.262
  302.213
  302.168
  302.13
  302.105
  302.093
  302.094
  302.102
  302.111
  302.122
  302.143
  302.196
  302.46
  302.821
  302.88
  302.883
  302.871
  302.858
  302.847
  302.837
  302.827
  302.817
  302.806
  302.795
  302.782
  302.769
  302.754
  302.736
  302.716
  302.692
  302.665
  302.635
  302.604
  302.573
  302.541
  302.508
  302.474
  302.437
  302.395
  302.351
  302.304
  302.257
  302.215
  302.181
  302.157
  302.142
  302.135
  302.138
  302.153
  302.205
  302.654
  302.6
  302.602
  302.803
  302.858
  302.86
  302.855
  302.848
  302.84
  302.833
  302.825
  302.817
  302.809
  302.8
  302.791
  302.78
  302.769
  302.757
  302.744
  302.731
  302.715
  302.699
  302.681
  302.662
  302.641
  302.618
  302.594
  302.567
  302.538
  302.505
  302.467
  302.426
  302.382
  302.34
  302.303
  302.273
  302.251
  302.233
  302.217
  302.234
)
;

boundaryField
{
  floor
  {
    type wallHeatTransfer;
    Tinf uniform 305.2;
    alphaWall uniform 0.24;
    value nonuniform List<scalar> 29
(
  302.269
  302.175
  302.094
  302.105
  302.202
  302.313
  302.397
  302.46
  302.439
  302.45
  302.474
  302.495
  302.519
  302.53
  302.434
  302.263
  302.131
  302.035
  302.017
  302.085
  302.085
  302.019
  302.009
  302.044
  302.269
  302.175
  302.118
  302.016
  302.134
)
;
  }
  ceiling
  {
    type wallHeatTransfer;
    Tinf uniform 303.2;
    alphaWall uniform 0.24;
    value nonuniform List<scalar> 43
(
  302.691
  302.638
  302.637
  302.826
  302.879
  302.882
  302.878
  302.873
  302.868
  302.863
  302.857
  302.852
  302.846
  302.839
  302.832
  302.825
  302.817
  302.808
  302.798
  302.788
  302.776
  302.762
  302.747
  302.73
  302.711
  302.691
  302.669
  302.644
  302.616
  302.583
  302.545
  302.503
  302.459
  302.417
  302.38
  302.351
  302.331
  302.315
  302.302
  302.323
  304
  303.686
  302.499
)
;
  }
  sWall
  {
    type wallHeatTransfer;
    Tinf uniform 315.2;
    alphaWall uniform 0.36;
    value uniform 303.874;
  }
  nWall
  {
    type wallHeatTransfer;
    Tinf uniform 307.2;
    alphaWall uniform 0.36;
    value nonuniform List<scalar> 6
(
  302.593
  302.459
  302.455
  302.731
  302.776
  302.89
)
;
  }
  sideWalls
  {
    type empty;
  }
  glass1
  {
    type wallHeatTransfer;
    Tinf uniform 315.2;
    alphaWall uniform 4.3;
    value nonuniform List<scalar> 9
(
  311.881
  310.71
  310.019
  309.54
  309.202
  308.948
  308.744
  308.814
  309.069
)
;
  }
  glass2
  {
    type wallHeatTransfer;
    Tinf uniform 307.2;
    alphaWall uniform 4.3;
    value nonuniform List<scalar> 2
(
  305.256
  305.219
)
;
  }
  sun
  {
    type wallHeatTransfer;
    Tinf uniform 305.2;
    alphaWall uniform 0.24;
    value nonuniform List<scalar> 14
(
  302.649
  302.324
  302.352
  302.346
  302.338
  302.331
  302.324
  302.317
  302.31
  302.303
  302.295
  302.287
  302.279
  302.271
)
;
  }
  heatsource1
  {
    type fixedGradient;
    gradient uniform 0;
  }
  heatsource2
  {
    type fixedGradient;
    gradient uniform 0;
  }
  Table_master
  {
    type zeroGradient;
  }
  Table_slave
  {
    type zeroGradient;
  }
  inlet
  {
    type fixedValue;
    value uniform 299.15;
  }
  outlet
  {
    type zeroGradient;
  }
} 	// ************************************************************************* //

