// -*- C++ -*-
// File generated by PyFoam - sorry for the ugliness

FoamFile
{
 version 2.0;
 format ascii;
 class volVectorField;
 location "100";
 object U;
}

dimensions [ 0 1 -1 0 0 0 0 ];

internalField nonuniform List<vector> 459
(
  (0.105852 0.0677717 0)
  (-0.138356 0.000291754 0)
  (-0.114666 0.00437971 0)
  (-0.126613 0.00624617 0)
  (-0.139017 0.00575254 0)
  (-0.150185 0.00421408 0)
  (-0.158798 0.00200837 0)
  (-0.163865 -0.000764393 0)
  (-0.164493 -0.00410113 0)
  (-0.159769 -0.00811026 0)
  (-0.148524 -0.0128624 0)
  (-0.129357 -0.0184338 0)
  (-0.102051 -0.0255174 0)
  (-0.0737544 -0.0354706 0)
  (-0.0704795 -0.0465857 0)
  (0.0251103 0.0109756 0)
  (-0.0298063 -0.00983353 0)
  (-0.0173958 -0.0136832 0)
  (-0.00222866 -0.00956761 0)
  (0.00647487 -0.00250816 0)
  (0.00298673 0.00454674 0)
  (-0.0065126 0.00135119 0)
  (-0.00648437 -0.0033355 0)
  (-0.00189626 -0.00349892 0)
  (0.00266857 -0.00261542 0)
  (0.00631873 -0.00212621 0)
  (0.00971203 -0.00157869 0)
  (0.0118553 3.2962e-05 0)
  (0.00879097 0.00230495 0)
  (0.00308481 0.00162038 0)
  (0.00813531 -0.00803685 0)
  (0.0175068 -0.0216583 0)
  (0.0352679 -0.0152723 0)
  (-0.0143432 0.0106257 0)
  (0.311702 0.148536 0)
  (-0.163733 0.0152459 0)
  (-0.10726 0.0171232 0)
  (-0.125833 0.0195328 0)
  (-0.139959 0.0186932 0)
  (-0.15216 0.0157993 0)
  (-0.161647 0.0113874 0)
  (-0.167722 0.00560633 0)
  (-0.169616 -0.00154419 0)
  (-0.166631 -0.0100873 0)
  (-0.158097 -0.0197928 0)
  (-0.143312 -0.030365 0)
  (-0.122298 -0.0421517 0)
  (-0.097157 -0.0560368 0)
  (-0.0722998 -0.0700456 0)
  (-0.0500548 -0.0763721 0)
  (0.0405766 0.0096587 0)
  (0.128505 0.0147753 0)
  (0.0282831 0.00671856 0)
  (-0.0042918 -0.00305048 0)
  (-0.00890056 -0.00550274 0)
  (-0.00624093 -0.00145974 0)
  (0.004215 0.012407 0)
  (0.000594484 0.00697348 0)
  (-0.00381273 -0.00325585 0)
  (-0.00388211 -0.00376079 0)
  (-0.00361097 -0.00296581 0)
  (-0.00321333 -0.00291538 0)
  (-0.00234985 -0.00281302 0)
  (-0.000836869 -0.000785169 0)
  (-0.00381667 0.00354054 0)
  (-0.00912563 0.00431081 0)
  (0.0079665 -0.0122268 0)
  (0.00902932 -0.0219475 0)
  (0.0226128 -0.0099709 0)
  (-0.0861936 0.0384385 0)
  (0.482196 0.227568 0)
  (-0.21005 0.0430448 0)
  (-0.0916537 0.0366672 0)
  (-0.118934 0.0346691 0)
  (-0.134254 0.0316095 0)
  (-0.147422 0.026206 0)
  (-0.158053 0.0186413 0)
  (-0.165672 0.00903692 0)
  (-0.169642 -0.00251334 0)
  (-0.16922 -0.0157858 0)
  (-0.164538 -0.0304907 0)
  (-0.155786 -0.0459092 0)
  (-0.143791 -0.0615122 0)
  (-0.13001 -0.0763598 0)
  (-0.116357 -0.0870417 0)
  (-0.106769 -0.0875077 0)
  (-0.110451 -0.0757019 0)
  (0.0420031 0.0295127 0)
  (-0.0566037 0.0139101 0)
  (-0.0568238 0.00547133 0)
  (-0.0553544 -0.00553686 0)
  (-0.0509201 -0.0124905 0)
  (-0.0416636 -0.0140055 0)
  (0.01343 0.00372282 0)
  (-0.0030676 -0.00863593 0)
  (-0.00886934 -0.00912719 0)
  (-0.0132542 -0.00851833 0)
  (-0.0172139 -0.00755316 0)
  (-0.0205977 -0.00559911 0)
  (-0.0237972 -0.00233778 0)
  (-0.0273008 0.00124633 0)
  (-0.0277432 0.00125166 0)
  (0.0186838 -0.014853 0)
  (-0.00859792 -0.00115889 0)
  (-0.0529112 0.0110378 0)
  (-0.160466 0.0223288 0)
  (0.619927 0.293766 0)
  (-0.256929 0.076905 0)
  (-0.0707134 0.0586665 0)
  (-0.107464 0.0512377 0)
  (-0.122824 0.0459615 0)
  (-0.135722 0.0384815 0)
  (-0.146513 0.0284722 0)
  (-0.154813 0.0158711 0)
  (-0.160078 0.000774666 0)
  (-0.161485 -0.016284 0)
  (-0.159788 -0.034225 0)
  (-0.156368 -0.0517143 0)
  (-0.152947 -0.0675571 0)
  (-0.151451 -0.0800859 0)
  (-0.154263 -0.0857921 0)
  (-0.165504 -0.0780465 0)
  (-0.184953 -0.0446417 0)
  (-0.179067 0.0267499 0)
  (-0.128318 0.0257173 0)
  (-0.127598 0.0132702 0)
  (-0.117414 0.00134194 0)
  (-0.115788 -0.00927243 0)
  (-0.117858 -0.0169241 0)
  (-0.121819 -0.0201399 0)
  (-0.118165 -0.0136923 0)
  (-0.104197 -0.013639 0)
  (-0.0887494 -0.0160541 0)
  (-0.070225 -0.0193331 0)
  (-0.0483962 -0.0232674 0)
  (-0.0244379 -0.0274322 0)
  (0.00670154 -0.0303328 0)
  (0.0348725 -0.0284404 0)
  (0.0601444 -0.0252287 0)
  (0.0700555 -0.0192825 0)
  (0.070083 0.00331464 0)
  (0.0614336 0.0178948 0)
  (-0.0368933 0.021334 0)
  (0.730211 0.348891 0)
  (-0.297849 0.113305 0)
  (-0.0478211 0.0792503 0)
  (-0.091887 0.0667928 0)
  (-0.105976 0.0591765 0)
  (-0.116661 0.049696 0)
  (-0.125547 0.0375709 0)
  (-0.13233 0.0224741 0)
  (-0.136491 0.00446698 0)
  (-0.137103 -0.0155671 0)
  (-0.135329 -0.0353806 0)
  (-0.133347 -0.0529061 0)
  (-0.132932 -0.0671003 0)
  (-0.135436 -0.0771828 0)
  (-0.141663 -0.0819588 0)
  (-0.151134 -0.0792583 0)
  (-0.158927 -0.0643777 0)
  (-0.157628 -0.0327003 0)
  (-0.144302 -0.00569744 0)
  (-0.127743 0.0020018 0)
  (-0.114905 -0.00262828 0)
  (-0.1086 -0.00918811 0)
  (-0.106374 -0.0149158 0)
  (-0.105294 -0.017763 0)
  (-0.101377 -0.0169044 0)
  (-0.0936375 -0.0190583 0)
  (-0.0835452 -0.0230805 0)
  (-0.0711645 -0.0283332 0)
  (-0.0566158 -0.0341365 0)
  (-0.040581 -0.0395172 0)
  (-0.0234571 -0.0423287 0)
  (-0.00557494 -0.0406465 0)
  (0.0121894 -0.0340208 0)
  (0.0265999 -0.0235358 0)
  (0.0462927 -0.00119639 0)
  (0.0717477 0.0206362 0)
  (0.0710063 0.037135 0)
  (0.101678 0.0416272 0)
  (0.124627 0.0612784 0)
  (-0.404222 -0.0267089 0)
  (0.80465 0.398655 0)
  (-0.332842 0.147398 0)
  (-0.0292711 0.0930338 0)
  (-0.0718468 0.0801426 0)
  (-0.0840696 0.0698327 0)
  (-0.0910856 0.0580381 0)
  (-0.0960754 0.0439493 0)
  (-0.0992007 0.0267126 0)
  (-0.0999215 0.00608806 0)
  (-0.0967032 -0.0166499 0)
  (-0.0929972 -0.0374428 0)
  (-0.0907506 -0.0536655 0)
  (-0.0912275 -0.0650618 0)
  (-0.0949676 -0.0716616 0)
  (-0.101766 -0.0728748 0)
  (-0.110082 -0.0673187 0)
  (-0.115957 -0.0538057 0)
  (-0.115315 -0.035209 0)
  (-0.10787 -0.0192653 0)
  (-0.09774 -0.011887 0)
  (-0.0895288 -0.011404 0)
  (-0.0849376 -0.0140067 0)
  (-0.0832139 -0.0173668 0)
  (-0.0826988 -0.0199989 0)
  (-0.081518 -0.0220313 0)
  (-0.0790179 -0.0257559 0)
  (-0.0754531 -0.031255 0)
  (-0.070989 -0.0378973 0)
  (-0.0659571 -0.0446797 0)
  (-0.0609182 -0.0503129 0)
  (-0.05626 -0.0531979 0)
  (-0.0518652 -0.0520327 0)
  (-0.0471968 -0.0465961 0)
  (-0.0407503 -0.037471 0)
  (-0.0274321 -0.0247561 0)
  (0.00393254 -0.0115983 0)
  (0.037623 -0.00477098 0)
  (0.087924 0.0184597 0)
  (0.136164 0.0668154 0)
  (-0.0450091 0.0798182 0)
  (0.827213 0.444734 0)
  (-0.352016 0.154716 0)
  (-0.0118821 0.0799002 0)
  (-0.0359163 0.0909179 0)
  (-0.0512131 0.0788685 0)
  (-0.0557953 0.0617525 0)
  (-0.0556599 0.0448427 0)
  (-0.0533583 0.0255548 0)
  (-0.0479433 0.00219469 0)
  (-0.0380396 -0.0227932 0)
  (-0.0331678 -0.0420325 0)
  (-0.031773 -0.0549966 0)
  (-0.0340199 -0.0628041 0)
  (-0.039643 -0.0663916 0)
  (-0.047768 -0.065859 0)
  (-0.056591 -0.0604555 0)
  (-0.0633464 -0.0498258 0)
  (-0.0654382 -0.0366098 0)
  (-0.062976 -0.0250624 0)
  (-0.0583476 -0.0182474 0)
  (-0.0542866 -0.0158045 0)
  (-0.0521391 -0.0159511 0)
  (-0.0519403 -0.0172983 0)
  (-0.053097 -0.019029 0)
  (-0.0549642 -0.0213679 0)
  (-0.0574571 -0.0252278 0)
  (-0.0608703 -0.0307128 0)
  (-0.0655717 -0.0371256 0)
  (-0.0721043 -0.0432071 0)
  (-0.0810568 -0.0477042 0)
  (-0.092586 -0.0496499 0)
  (-0.105847 -0.048611 0)
  (-0.118878 -0.045049 0)
  (-0.129254 -0.0404935 0)
  (-0.134287 -0.0378757 0)
  (-0.132045 -0.0419739 0)
  (-0.124314 -0.0547549 0)
  (-0.106935 -0.0603799 0)
  (0.069695 0.0260472 0)
  (-0.117563 0.187491 0)
  (0.931432 0.471122 0)
  (-0.159756 0.137767 0)
  (0.057061 0.0355916 0)
  (0.0734852 0.0558111 0)
  (0.0339744 0.0585551 0)
  (0.0153419 0.0407119 0)
  (0.0157646 0.0225293 0)
  (0.0210602 0.00314481 0)
  (0.0364552 -0.0179517 0)
  (0.0446861 -0.0344667 0)
  (0.0456684 -0.0464551 0)
  (0.0423802 -0.0541323 0)
  (0.0359445 -0.0579955 0)
  (0.0269738 -0.0586844 0)
  (0.0162031 -0.0566479 0)
  (0.00496588 -0.0518135 0)
  (-0.00484683 -0.0438337 0)
  (-0.0105845 -0.0345911 0)
  (-0.0128321 -0.026193 0)
  (-0.0129473 -0.0203571 0)
  (-0.0126685 -0.0172048 0)
  (-0.0130683 -0.0159679 0)
  (-0.0144995 -0.0158406 0)
  (-0.0169681 -0.0162827 0)
  (-0.0205647 -0.0173176 0)
  (-0.0258549 -0.0193134 0)
  (-0.0337467 -0.0222766 0)
  (-0.045275 -0.0254547 0)
  (-0.0614684 -0.027361 0)
  (-0.0835954 -0.0268872 0)
  (-0.112737 -0.0240075 0)
  (-0.148217 -0.019538 0)
  (-0.186473 -0.0145305 0)
  (-0.224932 -0.010948 0)
  (-0.262258 -0.0113018 0)
  (-0.295936 -0.0174461 0)
  (-0.321063 -0.0281895 0)
  (-0.34118 -0.0348903 0)
  (-0.394269 -0.0203857 0)
  (-0.616888 0.0282069 0)
  (1.07109 0.438037 0)
  (0.515007 0.292727 0)
  (0.488913 0.255919 0)
  (0.418148 0.206178 0)
  (0.324695 0.160362 0)
  (0.256674 0.111609 0)
  (0.218144 0.0678754 0)
  (0.197201 0.0326058 0)
  (0.179918 0.00392289 0)
  (0.160859 -0.0184328 0)
  (0.143596 -0.0336913 0)
  (0.127763 -0.042674 0)
  (0.11269 -0.0467007 0)
  (0.0980117 -0.0470358 0)
  (0.0836728 -0.0447125 0)
  (0.0699728 -0.0405261 0)
  (0.0577226 -0.03513 0)
  (0.0480673 -0.0291953 0)
  (0.0412305 -0.023642 0)
  (0.0366124 -0.0193401 0)
  (0.0331706 -0.0165404 0)
  (0.0300809 -0.0149898 0)
  (0.0269137 -0.0142581 0)
  (0.0234837 -0.013924 0)
  (0.0195981 -0.0137327 0)
  (0.0148051 -0.0136026 0)
  (0.0084254 -0.0134271 0)
  (-0.000594678 -0.0127409 0)
  (-0.0120952 -0.0104124 0)
  (-0.0247652 -0.00574364 0)
  (-0.0369027 0.000975938 0)
  (-0.0478327 0.00837875 0)
  (-0.0598549 0.0145808 0)
  (-0.0742058 0.0180597 0)
  (-0.0907067 0.0161247 0)
  (-0.109563 0.00406644 0)
  (-0.128042 -0.024006 0)
  (-0.126301 -0.0755737 0)
  (-0.151845 -0.159938 0)
  (-0.54705 -0.272574 0)
  (-0.122984 0.180369 0)
  (0.163143 0.20509 0)
  (0.222749 0.167579 0)
  (0.225527 0.120464 0)
  (0.228838 0.0776222 0)
  (0.230742 0.0427594 0)
  (0.227589 0.0163301 0)
  (0.218363 -0.00307428 0)
  (0.204863 -0.016613 0)
  (0.189224 -0.0251963 0)
  (0.172748 -0.0296893 0)
  (0.156401 -0.0309683 0)
  (0.140883 -0.0299036 0)
  (0.126635 -0.027341 0)
  (0.113929 -0.0240815 0)
  (0.102984 -0.0208072 0)
  (0.0938747 -0.0179965 0)
  (0.0864225 -0.0159265 0)
  (0.0802142 -0.0145967 0)
  (0.0748289 -0.0138057 0)
  (0.0699867 -0.0132939 0)
  (0.0655387 -0.0128169 0)
  (0.0613779 -0.0121667 0)
  (0.0573449 -0.0111617 0)
  (0.0532396 -0.00964774 0)
  (0.0488171 -0.00757341 0)
  (0.0440224 -0.00482163 0)
  (0.0398797 -0.00100819 0)
  (0.0367558 0.00394826 0)
  (0.0347317 0.00994744 0)
  (0.0342822 0.016367 0)
  (0.0350888 0.0216202 0)
  (0.0367566 0.0239414 0)
  (0.0388267 0.0226546 0)
  (0.0431528 0.0184113 0)
  (0.0640078 0.00348256 0)
  (0.120397 -0.073618 0)
  (-0.155343 -0.230928 0)
  (-0.111792 0.200654 0)
  (0.0876638 0.179808 0)
  (0.121217 0.13154 0)
  (0.159139 0.093256 0)
  (0.19303 0.0612314 0)
  (0.214834 0.0361076 0)
  (0.224192 0.0183556 0)
  (0.224275 0.00711565 0)
  (0.218113 0.00016239 0)
  (0.208203 -0.0037189 0)
  (0.196241 -0.00512893 0)
  (0.18349 -0.00449251 0)
  (0.170957 -0.00217205 0)
  (0.159366 0.00147117 0)
  (0.149126 0.00602174 0)
  (0.140352 0.0109913 0)
  (0.132926 0.0158653 0)
  (0.126596 0.0201579 0)
  (0.121072 0.0235061 0)
  (0.116112 0.0257509 0)
  (0.111558 0.0269717 0)
  (0.107344 0.0274643 0)
  (0.103474 0.0276517 0)
  (0.100025 0.0279659 0)
  (0.0971415 0.0287494 0)
  (0.0949921 0.0301568 0)
  (0.093719 0.0320422 0)
  (0.093608 0.0332224 0)
  (0.0949686 0.0343114 0)
  (0.0982496 0.0357974 0)
  (0.103744 0.0375281 0)
  (0.111207 0.0385875 0)
  (0.119617 0.0374667 0)
  (0.126973 0.0323761 0)
  (0.13147 0.0202291 0)
  (0.129349 -0.00725935 0)
  (0.151085 -0.0647355 0)
  (-0.155354 -0.167564 0)
  (0.0190327 -0.249316 0)
  (-0.312415 -0.0664281 0)
  (-0.219884 0.147237 0)
  (-0.0691498 0.102588 0)
  (0.0272752 0.0642994 0)
  (0.0994063 0.041504 0)
  (0.154913 0.0217812 0)
  (0.191521 0.0053884 0)
  (0.210797 -0.00778919 0)
  (0.217556 -0.0184909 0)
  (0.21643 -0.0271081 0)
  (0.210507 -0.0342035 0)
  (0.201851 -0.0403461 0)
  (0.191979 -0.0459565 0)
  (0.182082 -0.0513743 0)
  (0.173061 -0.0568658 0)
  (0.165497 -0.0625996 0)
  (0.159642 -0.0686137 0)
  (0.15543 -0.0747933 0)
  (0.152547 -0.080897 0)
  (0.150531 -0.0866315 0)
  (0.148896 -0.0917503 0)
  (0.147236 -0.0961233 0)
  (0.145299 -0.0997394 0)
  (0.143032 -0.10264 0)
  (0.140591 -0.10481 0)
  (0.138319 -0.106086 0)
  (0.136705 -0.106157 0)
  (0.136412 -0.104729 0)
  (0.137688 -0.100517 0)
  (0.140955 -0.0937907 0)
  (0.146719 -0.0854443 0)
  (0.155291 -0.0767777 0)
  (0.166314 -0.0693559 0)
  (0.178373 -0.0649331 0)
  (0.188774 -0.0654456 0)
  (0.19419 -0.0729448 0)
  (0.187145 -0.0845903 0)
  (0.186664 -0.105944 0)
  (-0.148562 -0.156531 0)
)
;

boundaryField
{
  floor
  {
    type noSlip;
  }
  ceiling
  {
    type noSlip;
  }
  sWall
  {
    type noSlip;
  }
  nWall
  {
    type noSlip;
  }
  sideWalls
  {
    type empty;
  }
  glass1
  {
    type noSlip;
  }
  glass2
  {
    type noSlip;
  }
  sun
  {
    type noSlip;
  }
  heatsource1
  {
    type noSlip;
  }
  heatsource2
  {
    type noSlip;
  }
  Table_master
  {
    type noSlip;
  }
  Table_slave
  {
    type noSlip;
  }
  inlet
  {
    type fixedValue;
    value uniform (0.0707107 -0.0707107 0);
  }
  outlet
  {
    type zeroGradient;
  }
} 	// ************************************************************************* //

