/*--------------------------------*- C++ -*----------------------------------*\
  =========                 |
  \\      /  F ield         | OpenFOAM: The Open Source CFD Toolbox
   \\    /   O peration     | Website:  https://openfoam.org
    \\  /    A nd           | Version:  6
     \\/     M anipulation  |
\*---------------------------------------------------------------------------*/
FoamFile
{
    version     2.0;
    format      ascii;
    class       volScalarField;
    location    "4880";
    object      epsilon;
}
// * * * * * * * * * * * * * * * * * * * * * * * * * * * * * * * * * * * * * //

dimensions      [0 2 -3 0 0 0 0];

internalField   nonuniform List<scalar> 
458
(
0.000432798
0.000557902
0.000596576
0.000686362
0.000776642
0.000869132
0.00096877
0.00107735
0.00117192
0.00123407
0.00124121
0.00117487
0.00102241
0.000744358
0.000324955
3.9234e-05
6.32105e-05
9.2118e-05
0.000104424
9.95975e-05
8.16198e-05
6.44087e-05
5.12253e-05
4.13723e-05
3.39169e-05
2.81896e-05
2.37378e-05
2.02074e-05
1.73133e-05
1.48367e-05
1.25996e-05
1.13836e-05
8.83705e-06
0.00106112
0.00158339
0.000518393
0.000502564
0.000518399
0.000550849
0.000606187
0.000688378
0.000779608
0.000853822
0.00088192
0.000847688
0.0007568
0.000623951
0.000501998
0.00074734
0.00042675
0.00023178
3.82919e-05
7.5368e-05
9.27339e-05
9.34113e-05
8.97134e-05
9.00217e-05
7.05466e-05
5.34832e-05
4.07979e-05
3.15297e-05
2.47347e-05
1.97171e-05
1.59627e-05
1.31642e-05
1.14023e-05
1.06877e-05
3.0495e-05
2.00785e-05
0.00190708
0.00384825
0.0006037
0.000458224
0.000465939
0.000508046
0.000580322
0.000683483
0.000796906
0.000884131
0.000917784
0.000887711
0.000801821
0.000667038
0.000517524
0.000416316
0.000352973
0.000381792
0.000139946
0.000139209
0.000125544
0.000111474
0.00010348
0.000198143
0.000132963
9.11204e-05
6.45153e-05
4.72777e-05
3.5806e-05
2.79814e-05
2.25599e-05
1.88642e-05
1.48245e-05
1.31276e-05
6.48913e-05
3.31352e-05
0.00306344
0.00799433
0.000903724
0.000438968
0.00042919
0.000481195
0.000574906
0.000717844
0.000862428
0.000957775
0.000988989
0.000952684
0.000855056
0.00070319
0.000548397
0.000432265
0.000365788
0.000380432
0.000583794
0.000375771
0.000245107
0.000178215
0.000140424
0.000122953
0.000283171
0.000218099
0.00018003
0.00015497
0.000135687
0.000118207
0.00010304
8.84869e-05
7.32936e-05
4.53982e-05
2.92889e-05
0.000114643
5.06203e-05
0.0046497
0.014428
0.00174036
0.00047082
0.000395574
0.000451522
0.000588804
0.000832697
0.00101845
0.0011117
0.00112817
0.00106904
0.000937322
0.000753643
0.000564812
0.000420014
0.000331631
0.000302654
0.000303803
0.000253558
0.000209335
0.000175073
0.000146254
0.000122027
0.000113023
0.000103774
9.75131e-05
9.21721e-05
8.61802e-05
7.87577e-05
7.08776e-05
6.31504e-05
5.5897e-05
4.60254e-05
3.61877e-05
7.47654e-05
0.000114606
0.000120976
0.000143505
0.000184282
0.00687176
0.021736
0.00400155
0.000790611
0.000465003
0.000473963
0.000700548
0.00111957
0.00130592
0.00136557
0.00134324
0.00124579
0.00106691
0.000825072
0.000577519
0.000388631
0.000278751
0.000238448
0.00022815
0.000218163
0.000201062
0.000176701
0.000149245
0.000123708
0.000107284
0.000100868
9.97199e-05
9.93203e-05
9.71836e-05
9.16488e-05
8.16986e-05
7.0439e-05
5.97946e-05
5.01393e-05
4.3433e-05
5.55218e-05
8.83481e-05
0.00010613
0.000206707
0.000205618
0.00966109
0.0261941
0.00879515
0.00280005
0.00145392
0.0011407
0.00148253
0.00172626
0.0017857
0.00174883
0.00164945
0.0014831
0.0012296
0.00090788
0.000588075
0.000355783
0.000234403
0.00020013
0.000202291
0.000202938
0.00018996
0.000166781
0.000141287
0.000120159
0.000109028
0.000108514
0.000113629
0.00012012
0.000125695
0.000128145
0.000124064
0.000111062
9.74663e-05
8.59136e-05
8.04256e-05
8.87033e-05
0.000120572
0.000176759
0.000327312
0.000344784
0.0104482
0.0301016
0.0160957
0.00965271
0.00596991
0.00418031
0.00338336
0.00287586
0.00253805
0.00228104
0.00203886
0.00176069
0.00139697
0.000968232
0.000561247
0.000300405
0.000190344
0.000174344
0.000179597
0.000177081
0.00016217
0.000141922
0.000124108
0.000113525
0.000112222
0.000119058
0.000131173
0.000146864
0.000165774
0.000187767
0.000212065
0.000232934
0.000245997
0.000273131
0.00032909
0.000480084
0.000820551
0.00137763
0.00411035
0.00128189
0.00984348
0.0172567
0.0132407
0.00999031
0.00750808
0.00579393
0.00458951
0.00379048
0.00325075
0.00282329
0.00242637
0.00200592
0.00148342
0.000913856
0.000406963
0.000216052
0.000158849
0.000147502
0.000144429
0.000136906
0.000124582
0.000112488
0.000104968
0.000104105
0.000109947
0.000121519
0.000138068
0.0001599
0.000188371
0.000225735
0.000275057
0.000339954
0.000427272
0.000552001
0.000734127
0.000976871
0.00125106
0.00149864
0.00170332
0.00104488
0.00347887
0.00472039
0.0051229
0.00502758
0.00473203
0.00431865
0.00378221
0.00315685
0.00254664
0.0019477
0.00116388
0.00053666
0.000254614
0.000159707
0.000129176
0.000118205
0.000110938
0.000103126
9.54834e-05
8.99981e-05
8.84709e-05
9.13308e-05
9.81891e-05
0.000108632
0.000122683
0.000140911
0.000164565
0.000195768
0.000237994
0.000297015
0.000378476
0.000488603
0.00062997
0.000786486
0.000911336
0.000944807
0.000871171
0.0005443
0.00289523
0.00861955
0.00827904
0.00717012
0.00607255
0.00478759
0.00347698
0.0022563
0.00128244
0.000709872
0.00037524
0.000215445
0.000151307
0.000124247
0.000111169
0.00010228
9.42957e-05
8.71223e-05
8.17708e-05
7.89824e-05
7.90468e-05
8.20746e-05
8.80231e-05
9.70708e-05
0.000109733
0.000126933
0.000150053
0.000181164
0.000223222
0.000279992
0.000356631
0.00045831
0.000585863
0.000728695
0.000842144
0.000956393
0.000733669
0.000565741
0.00336772
0.00362357
0.00386705
0.00532556
0.00449791
0.00313111
0.00188009
0.00115779
0.000823425
0.000572118
0.000398374
0.000290061
0.000215345
0.000168153
0.000139761
0.00012119
0.000107504
9.65865e-05
8.81501e-05
8.2745e-05
8.07876e-05
8.22563e-05
8.67154e-05
9.35583e-05
0.000102708
0.000114299
0.000128665
0.000146426
0.000168523
0.000196597
0.00023212
0.000276448
0.00033174
0.000400676
0.000486247
0.000603879
0.000660832
0.000621068
0.000499771
0.000395349
)
;

boundaryField
{
    floor
    {
        Cmu             0.09;
        kappa           0.41;
        E               9.8;
        type            epsilonWallFunction;
        value           nonuniform List<scalar> 
36
(
0.000324955
3.9234e-05
6.32105e-05
9.2118e-05
0.000104424
9.95975e-05
8.16198e-05
6.44087e-05
5.12253e-05
4.13723e-05
3.39169e-05
2.81896e-05
2.37378e-05
2.02074e-05
1.73133e-05
1.48367e-05
1.25996e-05
1.13836e-05
8.83705e-06
8.83705e-06
2.00785e-05
3.31352e-05
5.06203e-05
0.000120976
0.000143505
0.000184282
0.000324955
0.00074734
0.00042675
0.00023178
3.9234e-05
0.00023178
3.82919e-05
0.000381792
0.000139946
0.000583794
)
;
    }
    ceiling
    {
        Cmu             0.09;
        kappa           0.41;
        E               9.8;
        type            epsilonWallFunction;
        value           nonuniform List<scalar> 
43
(
0.00336772
0.00362357
0.00386705
0.00532556
0.00449791
0.00313111
0.00188009
0.00115779
0.000823425
0.000572118
0.000398374
0.000290061
0.000215345
0.000168153
0.000139761
0.00012119
0.000107504
9.65865e-05
8.81501e-05
8.2745e-05
8.07876e-05
8.22563e-05
8.67154e-05
9.35583e-05
0.000102708
0.000114299
0.000128665
0.000146426
0.000168523
0.000196597
0.00023212
0.000276448
0.00033174
0.000400676
0.000486247
0.000603879
0.000660832
0.000621068
0.000499771
0.000395349
0.00984348
0.0172567
0.00289523
)
;
    }
    sWall
    {
        Cmu             0.09;
        kappa           0.41;
        E               9.8;
        type            epsilonWallFunction;
        value           uniform 0.00336772;
    }
    nWall
    {
        Cmu             0.09;
        kappa           0.41;
        E               9.8;
        type            epsilonWallFunction;
        value           nonuniform List<scalar> 6(0.000184282 0.000205618 0.000344784 0.0005443 0.000565741 0.000395349);
    }
    sideWalls
    {
        type            empty;
    }
    glass1
    {
        Cmu             0.09;
        kappa           0.41;
        E               9.8;
        type            epsilonWallFunction;
        value           nonuniform List<scalar> 9(0.000432798 0.00106112 0.00190708 0.00306344 0.0046497 0.00687176 0.00966109 0.0104482 0.00984348);
    }
    glass2
    {
        Cmu             0.09;
        kappa           0.41;
        E               9.8;
        type            epsilonWallFunction;
        value           nonuniform List<scalar> 2(0.00128189 0.00104488);
    }
    sun
    {
        Cmu             0.09;
        kappa           0.41;
        E               9.8;
        type            epsilonWallFunction;
        value           nonuniform List<scalar> 
14
(
0.000432798
0.000557902
0.000596576
0.000686362
0.000776642
0.000869132
0.00096877
0.00107735
0.00117192
0.00123407
0.00124121
0.00117487
0.00102241
0.000744358
)
;
    }
    Table_master
    {
        Cmu             0.09;
        kappa           0.41;
        E               9.8;
        type            epsilonWallFunction;
        value           nonuniform List<scalar> 9(0.000198143 0.000132963 9.11204e-05 6.45153e-05 4.72777e-05 3.5806e-05 2.79814e-05 2.25599e-05 1.88642e-05);
    }
    Table_slave
    {
        Cmu             0.09;
        kappa           0.41;
        E               9.8;
        type            epsilonWallFunction;
        value           nonuniform List<scalar> 9(0.000283171 0.000218099 0.00018003 0.00015497 0.000135687 0.000118207 0.00010304 8.84869e-05 7.32936e-05);
    }
    inlet
    {
        type            turbulentMixingLengthDissipationRateInlet;
        mixingLength    0.01;
        phi             phi;
        k               k;
        value           uniform 0.000471672;
    }
    outlet
    {
        type            zeroGradient;
    }
}


// ************************************************************************* //
