/*--------------------------------*- C++ -*----------------------------------*\
  =========                 |
  \\      /  F ield         | OpenFOAM: The Open Source CFD Toolbox
   \\    /   O peration     | Website:  https://openfoam.org
    \\  /    A nd           | Version:  6
     \\/     M anipulation  |
\*---------------------------------------------------------------------------*/
FoamFile
{
    version     2.0;
    format      ascii;
    class       volScalarField;
    location    "100";
    object      alphat;
}
// * * * * * * * * * * * * * * * * * * * * * * * * * * * * * * * * * * * * * //

dimensions      [1 -1 -1 0 0 0 0];

internalField   nonuniform List<scalar> 
459
(
0.000910538
0.00092805
0.000749809
0.00076003
0.000787577
0.000816518
0.00084581
0.000875756
0.000907518
0.000937604
0.000962421
0.000979696
0.000987382
0.000983754
0.000962139
0.000509841
0.000559973
0.00056667
0.000452166
0.000329775
0.000282177
0.000265339
0.000255913
0.000245143
0.000237595
0.00023689
0.000241771
0.000252057
0.000289922
0.000407737
0.000562176
0.000633508
0.000608576
0.000544307
0.00165028
0.00313587
0.00187145
0.00285541
0.00316161
0.00336831
0.00358383
0.00378911
0.00395257
0.00407125
0.00412096
0.00405757
0.0038102
0.00326439
0.00229867
0.00103742
0.000742878
0.000600147
0.00143798
0.00154819
0.0013245
0.000968591
0.000620024
0.000512664
0.000428727
0.000423593
0.00042429
0.000430002
0.00047867
0.000653163
0.0010059
0.00142365
0.0020273
0.00198103
0.00191174
0.000669386
0.00228563
0.00550738
0.00215386
0.00359653
0.00469301
0.00501279
0.00523343
0.00542043
0.00555925
0.0056465
0.00564726
0.00550563
0.00514014
0.00445184
0.00340107
0.00217513
0.00110473
0.00103941
0.00256877
0.00221075
0.00181025
0.00144141
0.00106654
0.000331047
0.000252624
0.000283129
0.000346576
0.000429182
0.000520026
0.000619287
0.000738655
0.000900587
0.00240195
0.00212998
0.00163356
0.000867825
0.00285452
0.00819161
0.00295986
0.00344378
0.00534424
0.00588779
0.00614821
0.00636373
0.00654458
0.00668802
0.00678402
0.00677293
0.00655404
0.00598797
0.00494961
0.0035015
0.00208497
0.00130546
0.00280628
0.00300921
0.00274104
0.00234252
0.00196517
0.00149045
0.00104799
0.00105433
0.00106178
0.00106781
0.0010729
0.00107927
0.00109103
0.00111512
0.00117842
0.00362391
0.0041664
0.00408942
0.00137513
0.00335744
0.0108345
0.00441044
0.00326558
0.00523326
0.00606496
0.00642509
0.00670923
0.00697371
0.00722927
0.00754039
0.00787226
0.00815795
0.00831211
0.00824526
0.007901
0.00732027
0.00664519
0.00616611
0.0058543
0.00572608
0.00567294
0.0055388
0.00539114
0.00525124
0.00519341
0.00511948
0.00502062
0.00490613
0.00480424
0.004754
0.00478584
0.00490793
0.00511251
0.0051977
0.0051254
0.0043964
0.00185036
0.00162713
0.0014139
0.00381302
0.0130382
0.00681335
0.00390489
0.00447444
0.00537631
0.00594418
0.00633945
0.00664164
0.00696176
0.00742879
0.00801419
0.00865424
0.00926548
0.00975178
0.0100169
0.00999778
0.00970955
0.00926148
0.00878104
0.00837917
0.00808702
0.00787105
0.00769035
0.00750437
0.00729563
0.00704564
0.00674348
0.00639587
0.00604256
0.00574839
0.00556161
0.00547625
0.00543455
0.00538063
0.00523354
0.00476534
0.00391144
0.00286644
0.00146657
0.00420811
0.0144568
0.0102509
0.00636142
0.00458517
0.00451606
0.00508429
0.00560441
0.00586953
0.00615721
0.00661264
0.00725464
0.00804984
0.00891555
0.00973202
0.0103565
0.0106937
0.0107272
0.0105228
0.0101983
0.0098649
0.00958225
0.00935482
0.00915732
0.00895508
0.00872534
0.00844811
0.00809547
0.00764455
0.00710797
0.00655301
0.00606088
0.00567916
0.00538657
0.00510897
0.00474282
0.00418729
0.00346248
0.00271484
0.00144626
0.00424173
0.0135289
0.0115236
0.00972713
0.00742129
0.00591767
0.00543781
0.00550997
0.00555848
0.0055994
0.00577524
0.00614523
0.00674767
0.00757429
0.00854038
0.00941075
0.0100393
0.0103876
0.010484
0.0104144
0.0102769
0.0101383
0.0100231
0.00992762
0.00983734
0.0097408
0.00962376
0.00945652
0.00919636
0.00881425
0.0083399
0.00777814
0.00715842
0.00651533
0.00586873
0.00522591
0.0046244
0.00399772
0.00347205
0.00190083
0.00405749
0.00471382
0.00877089
0.00933561
0.00837945
0.00723159
0.00635503
0.00579704
0.00544946
0.00526214
0.00521873
0.00530706
0.00554954
0.00599298
0.00665816
0.00745745
0.00822964
0.0088409
0.00923992
0.00945541
0.00955572
0.00960602
0.00964759
0.00970014
0.00977297
0.00987447
0.0100086
0.0101616
0.0102912
0.0103376
0.0101882
0.00988329
0.00952448
0.00926836
0.00924022
0.00924023
0.0082829
0.0066913
0.00657691
0.0020671
0.0176956
0.017513
0.0105088
0.00831182
0.00713003
0.00636498
0.00584178
0.00547293
0.00520604
0.00502201
0.00492437
0.00493606
0.00509589
0.00543218
0.00592193
0.0064791
0.0069999
0.00742123
0.00773542
0.0079677
0.00815124
0.0083161
0.00848914
0.00869719
0.00896498
0.00930605
0.0097068
0.0100943
0.0103229
0.0103549
0.0102153
0.00999785
0.00979674
0.00956544
0.00891703
0.00763772
0.00673039
0.00199764
0.00726619
0.0149263
0.0102932
0.00822938
0.00704665
0.00622709
0.00561818
0.0051448
0.00475868
0.0044297
0.00416009
0.00395484
0.00382378
0.00378237
0.00384659
0.0040204
0.00428431
0.00459799
0.00491688
0.00520879
0.00546086
0.00567802
0.00587833
0.00608927
0.006345
0.00668232
0.00712907
0.00767409
0.00817709
0.00854852
0.00873354
0.00872689
0.00855521
0.00819992
0.00740373
0.0062508
0.00544235
0.00176348
0.00341607
0.00427965
0.00559149
0.00511107
0.00409664
0.00342401
0.00295895
0.00261333
0.00234274
0.00212337
0.00194215
0.00179104
0.00166272
0.00155267
0.00145804
0.00137708
0.00130881
0.00125272
0.00120841
0.00117523
0.00115213
0.00113768
0.00113039
0.00112902
0.00113282
0.00114178
0.00115682
0.0011799
0.00121364
0.00126018
0.00132861
0.00141351
0.00149997
0.00156876
0.00160454
0.00159912
0.00157271
0.00152999
0.00150869
0.00141051
)
;

boundaryField
{
    floor
    {
        type            compressible::alphatWallFunction;
        Prt             0.85;
        value           nonuniform List<scalar> 
29
(
0.000136843
7.06455e-05
7.82617e-05
7.92744e-05
6.17895e-05
4.24369e-05
3.46628e-05
3.18678e-05
3.02979e-05
2.84907e-05
2.72152e-05
2.70883e-05
2.79053e-05
2.96256e-05
3.58964e-05
5.47929e-05
7.85489e-05
8.92465e-05
8.55403e-05
7.58794e-05
7.58785e-05
9.45743e-05
0.000123405
0.000193997
0.000136841
7.06446e-05
8.42998e-05
0.000147726
0.000184502
)
;
    }
    ceiling
    {
        type            compressible::alphatWallFunction;
        Prt             0.85;
        value           nonuniform List<scalar> 
43
(
0.000456262
0.000561327
0.000717001
0.000660413
0.000539172
0.000457137
0.000399459
0.000355985
0.000321527
0.00029328
0.000269707
0.000249868
0.000232877
0.000218189
0.000205465
0.000194507
0.00018521
0.00017753
0.000171434
0.000166853
0.000163654
0.000161648
0.000160635
0.000160443
0.000160968
0.000162211
0.000164294
0.000167485
0.00017214
0.000178535
0.000187889
0.000199419
0.000211081
0.000220305
0.000225085
0.00022436
0.000220829
0.000215103
0.000212239
0.000198993
0.000534425
0.00061321
0.00091067
)
;
    }
    sWall
    {
        type            compressible::alphatWallFunction;
        Prt             0.85;
        value           uniform 0.00045517;
    }
    nWall
    {
        type            compressible::alphatWallFunction;
        Prt             0.85;
        value           nonuniform List<scalar> 6(0.00019903 0.000206156 0.000203416 0.000276484 0.00024578 0.000198617);
    }
    sideWalls
    {
        type            empty;
    }
    glass1
    {
        type            compressible::alphatWallFunction;
        Prt             0.85;
        value           nonuniform List<scalar> 9(0.000125553 0.000225258 0.0003072 0.000378698 0.000440788 0.000496282 0.000543911 0.000548123 0.000526289);
    }
    glass2
    {
        type            compressible::alphatWallFunction;
        Prt             0.85;
        value           nonuniform List<scalar> 2(0.000261828 0.000283412);
    }
    sun
    {
        type            compressible::alphatWallFunction;
        Prt             0.85;
        value           nonuniform List<scalar> 
14
(
0.000129543
0.000132009
0.000106384
0.000107873
0.000111872
0.000116054
0.00012027
0.000124562
0.000129095
0.000133371
0.000136886
0.000139326
0.00014041
0.000139897
)
;
    }
    heatsource1
    {
        type            compressible::alphatWallFunction;
        Prt             0.85;
        value           nonuniform List<scalar> 3(0.000257693 0.000228158 0.00019952);
    }
    heatsource2
    {
        type            compressible::alphatWallFunction;
        Prt             0.85;
        value           nonuniform List<scalar> 4(0.000147674 0.000105594 0.000105592 0.000157075);
    }
    Table_master
    {
        type            compressible::alphatWallFunction;
        Prt             0.85;
        value           nonuniform List<scalar> 9(4.28193e-05 2.99236e-05 3.49641e-05 4.52648e-05 5.83389e-05 7.23589e-05 8.73289e-05 0.000104942 0.000128297);
    }
    Table_slave
    {
        type            compressible::alphatWallFunction;
        Prt             0.85;
        value           nonuniform List<scalar> 9(0.000149187 0.000150079 0.000151126 0.000151973 0.000152687 0.000153577 0.000155214 0.000158562 0.000167326);
    }
    inlet
    {
        type            fixedValue;
        value           uniform 1.94e-05;
    }
    outlet
    {
        type            zeroGradient;
    }
}


// ************************************************************************* //
