/*--------------------------------*- C++ -*----------------------------------*\
  =========                 |
  \\      /  F ield         | OpenFOAM: The Open Source CFD Toolbox
   \\    /   O peration     | Website:  https://openfoam.org
    \\  /    A nd           | Version:  6
     \\/     M anipulation  |
\*---------------------------------------------------------------------------*/
FoamFile
{
    version     2.0;
    format      ascii;
    class       volScalarField;
    location    "100";
    object      alphat;
}
// * * * * * * * * * * * * * * * * * * * * * * * * * * * * * * * * * * * * * //

dimensions      [1 -1 -1 0 0 0 0];

internalField   nonuniform List<scalar> 
459
(
0.000889948
0.000946569
0.000905807
0.000903799
0.000904942
0.000905499
0.000899136
0.000893626
0.000892474
0.000895081
0.000899104
0.00090115
0.00089596
0.000874105
0.000818348
0.000338453
0.000373291
0.00040738
0.000428609
0.000445336
0.00045995
0.000473883
0.00048803
0.000503371
0.000521311
0.00054293
0.000568996
0.000600981
0.000645002
0.000702174
0.000755722
0.000747123
0.000724831
0.000638577
0.00136882
0.00352529
0.00351895
0.00383726
0.0040679
0.00427072
0.00447327
0.00447389
0.00437889
0.00427601
0.00416349
0.00399689
0.00370594
0.00319181
0.00231995
0.000884206
0.000623964
0.000414825
0.000700894
0.000725406
0.000781611
0.000842652
0.000882819
0.00090044
0.000898042
0.000922216
0.000977695
0.00107239
0.00121568
0.00141556
0.0016557
0.00196905
0.00255322
0.00259563
0.0027104
0.0008836
0.00164999
0.00555781
0.00549815
0.00575327
0.00541986
0.00528914
0.00590943
0.00631057
0.00626459
0.00605611
0.0058036
0.00548594
0.00503
0.00434006
0.0033333
0.00206276
0.000904123
0.000570328
0.0012406
0.00104672
0.000942055
0.000852872
0.00070179
0.000430508
0.000455487
0.00049782
0.000551272
0.000614472
0.000687304
0.000772755
0.000879507
0.00102631
0.00305915
0.00311786
0.0031151
0.00105092
0.00190432
0.00333334
0.00388452
0.0047506
0.00564571
0.00604715
0.00631663
0.00714034
0.00742518
0.00731167
0.00709971
0.00683669
0.00646433
0.00588371
0.00497647
0.00365331
0.00206175
0.000932479
0.00200131
0.00244775
0.00226095
0.00207199
0.00179818
0.00139515
0.000983088
0.000990093
0.000997223
0.00100422
0.0010131
0.00102675
0.00105004
0.00109252
0.00117419
0.00364783
0.00344939
0.00268101
0.0011716
0.00328148
0.00304164
0.00312632
0.00372318
0.00486218
0.00584463
0.00640201
0.00730853
0.00807075
0.00821107
0.0081745
0.00812669
0.0080659
0.00795237
0.00774284
0.00740075
0.00691139
0.00631014
0.0058084
0.00567056
0.00573759
0.00590323
0.00595787
0.0059163
0.00581562
0.00577289
0.00570829
0.00561876
0.00550702
0.00537825
0.00524179
0.00511427
0.00501759
0.00497936
0.00426973
0.00330512
0.00234201
0.00147943
0.00152327
0.00150585
0.00395756
0.00378546
0.00328991
0.00336846
0.00431341
0.00548911
0.00608285
0.00703632
0.00810888
0.00851338
0.00863718
0.00876244
0.00892323
0.00909072
0.00922158
0.00926269
0.00915636
0.00888078
0.00853954
0.00829488
0.00821847
0.00823569
0.00827362
0.0082899
0.00826349
0.00819555
0.00808854
0.00794712
0.00777506
0.00757555
0.00735105
0.007103
0.006829
0.00650751
0.00607545
0.00561467
0.0052528
0.00509441
0.00504648
0.00191002
0.00463037
0.00477837
0.00383046
0.0033001
0.00401302
0.00529009
0.00593733
0.006505
0.00753676
0.00810403
0.00830149
0.00853412
0.00885601
0.00923221
0.00961184
0.00992709
0.010095
0.0100647
0.00988891
0.00969267
0.00956188
0.00949003
0.00944999
0.00941039
0.00934494
0.00924159
0.0091004
0.00892397
0.00871527
0.00847786
0.00821637
0.00793826
0.0076564
0.00738694
0.00713706
0.00690548
0.00668925
0.00669734
0.0073368
0.00227764
0.00541208
0.00621892
0.00569916
0.00351787
0.00407107
0.00549516
0.0060268
0.00614489
0.00653013
0.00695765
0.00713536
0.0074222
0.00786337
0.00841053
0.00900724
0.00958165
0.0100292
0.0102763
0.0103338
0.0102798
0.0101906
0.0100981
0.0100102
0.00991901
0.00981074
0.00967552
0.00951006
0.00931364
0.00908679
0.00883143
0.00855165
0.00825545
0.00795666
0.00767518
0.00743624
0.00727744
0.00720523
0.00722046
0.00841449
0.00267802
0.00653014
0.00838319
0.0143865
0.00494484
0.00397187
0.00576405
0.00610801
0.00578639
0.00567175
0.00576072
0.00589748
0.00621035
0.00667543
0.00725794
0.00792252
0.00861342
0.00924464
0.00973408
0.0100477
0.0102076
0.0102588
0.0102394
0.010176
0.0100828
0.00996457
0.00982225
0.00965605
0.00946568
0.00925074
0.00901138
0.00874932
0.00846901
0.00817846
0.00788928
0.00761975
0.00740968
0.00733261
0.00746719
0.00835789
0.00269804
0.0245868
0.0138814
0.00430447
0.0053888
0.00559809
0.00546221
0.00548651
0.00557569
0.00576748
0.00609463
0.00654187
0.00708262
0.007684
0.00830601
0.00890067
0.00941763
0.00981873
0.0100913
0.0102464
0.0103067
0.0102967
0.0102375
0.0101439
0.0100251
0.00988606
0.00972919
0.00955504
0.00936337
0.00915409
0.00892807
0.00868796
0.00843881
0.00818937
0.00795511
0.00775905
0.00760653
0.00712166
0.00197003
0.00958074
0.0129606
0.0083211
0.00622078
0.00534873
0.00500401
0.00494106
0.00508107
0.00540464
0.00590102
0.0065448
0.00728435
0.00804681
0.00875705
0.00935783
0.00981989
0.0101408
0.0103373
0.0104353
0.0104624
0.0104427
0.0103942
0.0103292
0.0102544
0.0101727
0.0100843
0.00998783
0.00988133
0.00976323
0.00963287
0.00949077
0.00933854
0.00917866
0.00901455
0.00884257
0.00860932
0.00764059
0.00220976
0.00154823
0.0019282
0.0055057
0.00505679
0.00447718
0.00394534
0.00352241
0.00318862
0.0029204
0.00270385
0.0025318
0.00240122
0.00231137
0.00226129
0.00224695
0.0022599
0.00228866
0.00232196
0.0023514
0.00237241
0.00238373
0.00238622
0.00238177
0.00237251
0.00236034
0.00234672
0.00233263
0.00231862
0.00230489
0.00229143
0.00227815
0.00226497
0.00225198
0.00223943
0.00222778
0.00221792
0.00221215
0.0022131
0.00213992
0.00188064
)
;

boundaryField
{
    floor
    {
        type            compressible::alphatWallFunction;
        Prt             0.85;
        value           nonuniform List<scalar> 
29
(
0.000116653
4.41136e-05
4.97087e-05
5.51116e-05
5.84471e-05
6.10603e-05
6.33328e-05
6.54908e-05
6.76737e-05
7.00319e-05
7.27778e-05
7.60716e-05
8.00223e-05
8.48413e-05
9.14149e-05
9.98758e-05
0.00010772
0.000106449
0.000103121
9.0328e-05
9.03269e-05
0.000126038
0.000149733
0.000166658
0.000116651
4.41129e-05
5.62207e-05
8.00496e-05
0.000132871
)
;
    }
    ceiling
    {
        type            compressible::alphatWallFunction;
        Prt             0.85;
        value           nonuniform List<scalar> 
43
(
0.000218047
0.000268341
0.000707439
0.000654525
0.000585501
0.000521374
0.000469756
0.00042857
0.000395152
0.000367936
0.000346148
0.000329507
0.000317998
0.000311559
0.000309709
0.000311369
0.00031506
0.000319328
0.000323095
0.000325779
0.000327222
0.000327534
0.00032696
0.00032577
0.000324207
0.000322458
0.000320648
0.000318847
0.000317081
0.000315349
0.000313638
0.000311939
0.000310262
0.000308641
0.000307135
0.000305858
0.000305108
0.00030522
0.000295752
0.000261974
0.00082668
0.00103794
0.00117217
)
;
    }
    sWall
    {
        type            compressible::alphatWallFunction;
        Prt             0.85;
        value           uniform 0.000217211;
    }
    nWall
    {
        type            compressible::alphatWallFunction;
        Prt             0.85;
        value           nonuniform List<scalar> 6(0.000212071 0.000265671 0.000313332 0.000273444 0.000304603 0.000261789);
    }
    sideWalls
    {
        type            empty;
    }
    glass1
    {
        type            compressible::alphatWallFunction;
        Prt             0.85;
        value           nonuniform List<scalar> 9(0.000124585 0.000190513 0.000228062 0.000261695 0.00043792 0.000520749 0.000601611 0.000694101 0.000824195);
    }
    glass2
    {
        type            compressible::alphatWallFunction;
        Prt             0.85;
        value           nonuniform List<scalar> 2(0.000365278 0.00036782);
    }
    sun
    {
        type            compressible::alphatWallFunction;
        Prt             0.85;
        value           nonuniform List<scalar> 
14
(
0.000126964
0.000135014
0.00012922
0.000128934
0.000129097
0.000129176
0.000128268
0.000127481
0.000127316
0.000127688
0.000128261
0.000128552
0.000127809
0.00012468
)
;
    }
    heatsource1
    {
        type            compressible::alphatWallFunction;
        Prt             0.85;
        value           nonuniform List<scalar> 3(0.000208447 0.000214308 0.000211918);
    }
    heatsource2
    {
        type            compressible::alphatWallFunction;
        Prt             0.85;
        value           nonuniform List<scalar> 4(0.000125957 8.80573e-05 8.80563e-05 0.000128755);
    }
    Table_master
    {
        type            compressible::alphatWallFunction;
        Prt             0.85;
        value           nonuniform List<scalar> 9(5.86307e-05 6.25194e-05 6.90423e-05 7.71827e-05 8.66864e-05 9.74947e-05 0.000110003 0.000125399 0.000146208);
    }
    Table_slave
    {
        type            compressible::alphatWallFunction;
        Prt             0.85;
        value           nonuniform List<scalar> 9(0.000140018 0.000141022 0.000142039 0.000143036 0.000144295 0.000146224 0.0001495 0.000155448 0.000166794);
    }
    inlet
    {
        type            fixedValue;
        value           uniform 1.94e-05;
    }
    outlet
    {
        type            zeroGradient;
    }
}


// ************************************************************************* //
