/*--------------------------------*- C++ -*----------------------------------*\
  =========                 |
  \\      /  F ield         | OpenFOAM: The Open Source CFD Toolbox
   \\    /   O peration     | Website:  https://openfoam.org
    \\  /    A nd           | Version:  6
     \\/     M anipulation  |
\*---------------------------------------------------------------------------*/
FoamFile
{
    version     2.0;
    format      ascii;
    class       volScalarField;
    location    "100";
    object      alphat;
}
// * * * * * * * * * * * * * * * * * * * * * * * * * * * * * * * * * * * * * //

dimensions      [1 -1 -1 0 0 0 0];

internalField   nonuniform List<scalar> 
460
(
0.000440238
0.000455049
0.00039647
0.000408332
0.000425856
0.000443869
0.000461744
0.000479328
0.00049664
0.000513838
0.000531247
0.00054947
0.00056891
0.000587019
0.000602914
0.000615879
0.000626762
0.000638405
0.00020458
0.000201357
0.00023804
0.000263253
0.000286161
0.000307648
0.00032925
0.000352032
0.000376957
0.000405136
0.000437955
0.000477108
0.000523607
0.000571129
0.000578731
0.000394505
0.000768707
0.00159814
0.00119218
0.00167964
0.00185737
0.0019939
0.00214187
0.00230195
0.00246972
0.00263947
0.00280291
0.00294684
0.0030632
0.00314233
0.00314792
0.0030136
0.00261897
0.00178726
0.000784641
0.000773766
0.000549865
0.000362275
0.000423648
0.000536422
0.000597046
0.000704656
0.000818165
0.000934268
0.00105548
0.0011881
0.00133837
0.00151448
0.00173526
0.00203758
0.00247748
0.00246401
0.00109842
0.0010668
0.00268101
0.00133776
0.00238941
0.00315632
0.00346712
0.00370571
0.00393761
0.00416465
0.00438005
0.00457594
0.00474366
0.00487222
0.0049664
0.00499339
0.00490355
0.0046184
0.00406049
0.00333157
0.00290012
0.000865947
0.000413018
0.00063925
0.000691634
0.000732735
0.000819326
0.000911273
0.00101149
0.00111309
0.00122118
0.00134283
0.00148899
0.0016929
0.00202023
0.00306971
0.00279274
0.00134514
0.00135848
0.00404237
0.00167688
0.0023495
0.00387592
0.00449453
0.0048116
0.00506969
0.00530819
0.00552813
0.00572504
0.00589364
0.00602681
0.00613154
0.00618249
0.00613284
0.00589856
0.00535424
0.00435213
0.00274179
0.000993649
0.000496686
0.000845424
0.000646533
0.000531733
0.000442062
0.000362183
0.000384795
0.000416093
0.000457995
0.000516038
0.000599119
0.000719095
0.000894773
0.00345992
0.00293162
0.00165079
0.00164064
0.00558614
0.00237176
0.00209216
0.00399781
0.00508091
0.00552398
0.00580793
0.00605081
0.00627165
0.00647115
0.00664784
0.0067994
0.00693421
0.00704618
0.00710374
0.00703395
0.00670118
0.00589645
0.00440673
0.00236359
0.000765925
0.00149557
0.00162021
0.00125042
0.00106646
0.000890166
0.000702223
0.000729067
0.000752598
0.000779071
0.000812953
0.000860023
0.000934692
0.00106332
0.004211
0.00344233
0.00198009
0.00190501
0.00722241
0.0034543
0.00205308
0.00363245
0.00519805
0.00585495
0.00619951
0.00646314
0.00669488
0.00690233
0.00708836
0.00725981
0.00742848
0.00762345
0.00785195
0.00808779
0.00825752
0.00824138
0.00790905
0.00718177
0.0060864
0.00494297
0.00434755
0.00402795
0.00403834
0.0042254
0.00447911
0.00476676
0.00494132
0.00500661
0.00499297
0.0049638
0.00498838
0.00520904
0.00581001
0.00505582
0.00339772
0.00139112
0.00146217
0.00214784
0.00878304
0.00495977
0.00256371
0.00306984
0.00468927
0.00561887
0.00610935
0.00645835
0.00674895
0.00699493
0.00719752
0.00736548
0.00752456
0.00774284
0.00807222
0.00852172
0.00903856
0.0095029
0.00975582
0.00964766
0.0090993
0.00819609
0.0074589
0.00704285
0.00695221
0.00708523
0.00731547
0.00753041
0.00766383
0.00769829
0.00765894
0.00757851
0.00748816
0.0074481
0.00748322
0.00728122
0.00684945
0.00560451
0.00216799
0.00240089
0.0100441
0.00681472
0.00388535
0.00291323
0.00349558
0.00443738
0.0051663
0.00572333
0.00617847
0.00655007
0.00683637
0.00703981
0.00717728
0.00737978
0.00773583
0.00828904
0.00900028
0.00975085
0.0103728
0.0106956
0.0106161
0.0101898
0.00963448
0.00919319
0.00895587
0.00891166
0.00898413
0.00908008
0.00912944
0.00911014
0.00902806
0.00889035
0.00871603
0.00855724
0.00847898
0.00841918
0.00835321
0.00800369
0.00249161
0.00255501
0.0103297
0.0077541
0.00582664
0.00432853
0.00347258
0.00348262
0.00398176
0.00453589
0.00504259
0.00550345
0.005906
0.00626025
0.00656359
0.0068599
0.00727085
0.00786103
0.00859977
0.00940397
0.010162
0.0107408
0.0110284
0.011012
0.0107931
0.0105161
0.0102862
0.010154
0.0101009
0.0100777
0.0100448
0.00997878
0.00986607
0.00970089
0.00948961
0.00926185
0.00906732
0.00894452
0.00895757
0.00910121
0.0028215
0.00305392
0.00508403
0.00474013
0.0046151
0.00426725
0.00383823
0.00349342
0.00329157
0.00324496
0.00336431
0.00367192
0.0041895
0.00489112
0.0056536
0.00640023
0.00715468
0.00794295
0.00873161
0.00946744
0.0101199
0.0106708
0.0110902
0.0113476
0.0114436
0.011433
0.011377
0.0113141
0.0112526
0.0111912
0.0111195
0.0110248
0.0108943
0.0107176
0.0104894
0.0102141
0.00991003
0.00960418
0.00935134
0.00928652
0.00293637
0.00202104
0.0028521
0.00309274
0.00314895
0.0031826
0.00326185
0.00342241
0.00369124
0.00409835
0.00468977
0.00553571
0.00666167
0.00797347
0.00926134
0.0103171
0.0110394
0.0114584
0.011673
0.0117795
0.01184
0.011885
0.0119206
0.0119465
0.0119649
0.0119779
0.0119804
0.0119646
0.0119224
0.0118469
0.0117322
0.0115741
0.0113672
0.0111015
0.0107555
0.0102743
0.00907038
0.00290385
0.00190685
0.0022836
0.00231535
0.00286794
0.00289093
0.00278345
0.00265843
0.00254335
0.0024453
0.00236576
0.0023048
0.0022627
0.00224092
0.00224613
0.00228756
0.00237294
0.00249841
0.00263768
0.00276104
0.00285083
0.00290429
0.00292808
0.00293199
0.00292506
0.00291386
0.00290249
0.00289319
0.00288686
0.00288337
0.00288184
0.00288102
0.00287964
0.00287667
0.00287143
0.00286339
0.00285134
0.00283243
0.00280012
0.00268117
0.00230845
)
;

boundaryField
{
    floor
    {
        type            compressible::alphatWallFunction;
        Prt             0.85;
        value           nonuniform List<scalar> 
36
(
9.03254e-05
2.1846e-05
2.12777e-05
2.75474e-05
3.17806e-05
3.55792e-05
3.91052e-05
4.2617e-05
4.62874e-05
5.02669e-05
5.47244e-05
5.98651e-05
6.59334e-05
7.30586e-05
8.02583e-05
8.14025e-05
5.30455e-05
5.31065e-05
0.000156408
0.000190381
0.000231511
0.000274884
0.000196575
0.000174664
9.03578e-05
0.000111787
0.000110208
7.70491e-05
2.18694e-05
7.7079e-05
4.79507e-05
0.000123537
5.59842e-05
0.000141676
6.89633e-05
0.000109077
)
;
    }
    ceiling
    {
        type            compressible::alphatWallFunction;
        Prt             0.85;
        value           nonuniform List<scalar> 
47
(
0.000347131
0.000314463
0.000318523
0.000388569
0.000391447
0.00037795
0.000362185
0.000347602
0.000335123
0.000324961
0.000317147
0.00031174
0.000308936
0.000309608
0.000314934
0.000325879
0.000341888
0.000359554
0.00037512
0.000386401
0.000393099
0.000396074
0.00039656
0.00039569
0.000394285
0.000392859
0.00039169
0.000390895
0.000390455
0.000390262
0.000390157
0.000389982
0.000389607
0.000388949
0.000387938
0.000386423
0.000384044
0.000379975
0.000364971
0.000317134
0.000553618
0.000657658
0.000616827
0.000347141
0.000314472
0.00028027
0.000318532
)
;
    }
    sWall
    {
        type            compressible::alphatWallFunction;
        Prt             0.85;
        value           uniform 0.000179977;
    }
    nWall
    {
        type            compressible::alphatWallFunction;
        Prt             0.85;
        value           nonuniform List<scalar> 5(0.000251244 0.000299128 0.00034061 0.000392655 0.000317603);
    }
    sideWalls
    {
        type            empty;
    }
    glass1
    {
        type            compressible::alphatWallFunction;
        Prt             0.85;
        value           nonuniform List<scalar> 10(5.90325e-05 0.000107699 0.000149824 0.000189788 0.000227574 0.000262364 0.000293886 0.000326342 0.000345974 0.000325815);
    }
    glass2
    {
        type            compressible::alphatWallFunction;
        Prt             0.85;
        value           nonuniform List<scalar> 2(0.000382838 0.000397264);
    }
    sun
    {
        type            compressible::alphatWallFunction;
        Prt             0.85;
        value           nonuniform List<scalar> 
17
(
6.01437e-05
6.25265e-05
5.33615e-05
5.523e-05
5.79782e-05
6.0788e-05
6.35619e-05
6.62772e-05
6.89382e-05
7.15701e-05
7.42229e-05
7.6988e-05
7.99254e-05
8.26501e-05
8.50332e-05
8.6971e-05
8.85934e-05
)
;
    }
    Table_master
    {
        type            compressible::alphatWallFunction;
        Prt             0.85;
        value           nonuniform List<scalar> 8(4.78132e-05 5.14101e-05 5.63431e-05 6.28731e-05 7.17948e-05 8.43518e-05 0.000102117 0.000127504);
    }
    Table_slave
    {
        type            compressible::alphatWallFunction;
        Prt             0.85;
        value           nonuniform List<scalar> 8(9.96393e-05 0.000103573 0.000107007 0.000110855 0.00011576 0.000122533 0.000133188 0.00015131);
    }
    inlet
    {
        type            fixedValue;
        value           nonuniform 0();
    }
    outlet
    {
        type            zeroGradient;
    }
}


// ************************************************************************* //
