/*--------------------------------*- C++ -*----------------------------------*\
  =========                 |
  \\      /  F ield         | OpenFOAM: The Open Source CFD Toolbox
   \\    /   O peration     | Website:  https://openfoam.org
    \\  /    A nd           | Version:  6
     \\/     M anipulation  |
\*---------------------------------------------------------------------------*/
FoamFile
{
    version     2.0;
    format      ascii;
    class       volScalarField;
    location    "100";
    object      alphat;
}
// * * * * * * * * * * * * * * * * * * * * * * * * * * * * * * * * * * * * * //

dimensions      [1 -1 -1 0 0 0 0];

internalField   nonuniform List<scalar> 
458
(
0.00082272
0.000839128
0.000705995
0.00072077
0.000745705
0.000771259
0.0007967
0.00082228
0.000848855
0.000876512
0.000901023
0.000921324
0.000937094
0.000949056
0.00095505
0.00036934
0.000394415
0.000325855
0.000258508
0.000228936
0.00021699
0.000220371
0.000238877
0.000270753
0.000312979
0.000363441
0.000421137
0.000487038
0.000562118
0.000633898
0.000648092
0.000598183
0.000491228
0.00148188
0.00287279
0.00185985
0.00275035
0.00304544
0.00324762
0.00345072
0.00364053
0.00379084
0.00388989
0.00392226
0.00384496
0.00358518
0.00302052
0.00204477
0.00105069
0.000969603
0.000712797
0.000455486
0.0013894
0.00084791
0.0005495
0.000394775
0.00036462
0.000359556
0.000376111
0.000433069
0.000547726
0.000724036
0.000955647
0.00122784
0.00153623
0.00214887
0.00199723
0.00147008
0.00053821
0.00205032
0.00499538
0.00213132
0.00356101
0.0046486
0.0050172
0.00527963
0.00550921
0.00569628
0.00582356
0.00589669
0.00587765
0.00570681
0.00529343
0.0045538
0.00352383
0.00227964
0.00102825
0.000680403
0.00162301
0.00107937
0.000664915
0.000399357
0.000229325
0.000225884
0.000250643
0.000300188
0.00037417
0.000467488
0.000576181
0.000703709
0.000863369
0.00265095
0.00250399
0.00179538
0.00087142
0.00257137
0.00749308
0.0029384
0.00341754
0.00525394
0.00588336
0.0062095
0.00648107
0.00672115
0.00692168
0.00709905
0.00723264
0.00726693
0.00710774
0.00662006
0.00565958
0.00413616
0.00229802
0.00107082
0.00215002
0.00222806
0.00181746
0.00147198
0.00117286
0.000904355
0.000911597
0.000915962
0.000919237
0.000924604
0.000936373
0.000961018
0.00100897
0.00109962
0.00339397
0.00348318
0.00297629
0.00119297
0.00304096
0.010031
0.00451621
0.00334843
0.00500551
0.0059011
0.00634364
0.00668115
0.00698071
0.00726562
0.00759412
0.00796088
0.00832339
0.00861626
0.00875376
0.00865502
0.00826824
0.00758671
0.0066947
0.00589664
0.00550274
0.00535516
0.00534068
0.00531913
0.00518608
0.00508556
0.00495191
0.00478457
0.00459581
0.00441092
0.00426726
0.00420127
0.00422786
0.00435497
0.00422283
0.00397903
0.00344119
0.00143584
0.00124051
0.00108221
0.00347114
0.0122219
0.00713859
0.00438151
0.00441357
0.005113
0.00570748
0.00615963
0.00649215
0.00682152
0.007273
0.00783808
0.0084782
0.00912783
0.00970314
0.0101235
0.0103206
0.0102312
0.00984403
0.00927727
0.008729
0.00840237
0.008232
0.00808352
0.00791366
0.00771394
0.00746524
0.00715539
0.00677848
0.00634417
0.00588931
0.00547215
0.00513193
0.00485016
0.00457311
0.00425686
0.00381204
0.00321089
0.00223896
0.0011054
0.00383991
0.0136143
0.0104867
0.00713591
0.00522585
0.00476226
0.00506922
0.0055055
0.00575361
0.00602859
0.00642843
0.00699963
0.00774499
0.00860642
0.00947911
0.0102516
0.0108252
0.011113
0.0110764
0.0107904
0.0104139
0.0100875
0.00984276
0.00964886
0.0094735
0.00929229
0.00908502
0.00882977
0.0084982
0.00805943
0.00749915
0.00685047
0.00619559
0.00559927
0.0050622
0.0045291
0.00392294
0.00322993
0.00245385
0.00112596
0.00387011
0.0125826
0.011054
0.0098159
0.007898
0.0064945
0.00586832
0.00571324
0.00566135
0.00566485
0.00578843
0.00608588
0.00660493
0.00735832
0.00828368
0.00924886
0.0101012
0.0107122
0.0109869
0.0109803
0.010807
0.0105868
0.0103868
0.0102238
0.0100929
0.00998419
0.00988786
0.00979078
0.00966942
0.00948382
0.00917783
0.00869776
0.00803774
0.00724449
0.00642012
0.00562124
0.00481335
0.00409495
0.00355142
0.00176857
0.00369793
0.00428227
0.0086891
0.00941056
0.00857656
0.0075258
0.00668436
0.00611102
0.00573426
0.00551943
0.00546294
0.00555663
0.00581268
0.0062564
0.0068985
0.00769502
0.00853258
0.00926435
0.00977231
0.0100319
0.0100948
0.0100445
0.00995072
0.00985444
0.00977598
0.00972504
0.00970732
0.00972516
0.00977438
0.0098387
0.00988414
0.00985677
0.00971913
0.00948453
0.00917475
0.00875447
0.00815822
0.00713796
0.00688449
0.0019456
0.0184096
0.0178576
0.0108223
0.00860733
0.00743964
0.00668859
0.00618913
0.00587132
0.00569415
0.00564335
0.00570934
0.00588448
0.00616607
0.00655217
0.00702515
0.00753562
0.00800873
0.0083794
0.00862117
0.00874817
0.00879448
0.00879506
0.00877803
0.00876421
0.00876933
0.00880558
0.00888124
0.00899727
0.00914137
0.00927632
0.00937005
0.00936702
0.00916719
0.00872708
0.00803283
0.00706374
0.00594418
0.00189817
0.00681259
0.0146767
0.010641
0.00849459
0.00726695
0.00649736
0.00601442
0.00573672
0.00561939
0.00562563
0.00573425
0.00591151
0.00612726
0.00636191
0.00660427
0.00684486
0.00706977
0.00726266
0.00741238
0.00751732
0.00758385
0.00762207
0.00764225
0.00765297
0.00766044
0.00766812
0.00767999
0.00769431
0.00771075
0.00772898
0.00773547
0.00766877
0.00748013
0.00713115
0.00660259
0.00585138
0.00544028
0.0018022
0.00189913
0.00266775
0.00490235
0.0044643
0.00380489
0.00325299
0.00282844
0.00250476
0.00225496
0.00206034
0.00190943
0.00179627
0.0017144
0.00166002
0.00162864
0.00161479
0.00161306
0.00161857
0.00162715
0.0016354
0.00164098
0.00164277
0.00164076
0.00163565
0.00162842
0.00162006
0.0016115
0.00160348
0.00159612
0.00158973
0.00158382
0.00157728
0.00156723
0.00155363
0.00153625
0.00151276
0.00148025
0.00143706
0.00144941
0.00130128
)
;

boundaryField
{
    floor
    {
        type            compressible::alphatWallFunction;
        Prt             0.85;
        value           nonuniform List<scalar> 
36
(
0.000136017
4.89183e-05
5.2895e-05
4.19524e-05
3.08808e-05
2.5896e-05
2.38518e-05
2.44205e-05
2.75544e-05
3.28858e-05
3.98253e-05
4.79602e-05
5.70851e-05
6.73139e-05
7.87557e-05
8.95166e-05
9.16227e-05
8.41814e-05
6.79587e-05
6.79578e-05
7.51192e-05
0.000124088
0.000169275
0.000202448
0.000175836
0.00015392
0.000136016
0.000149482
0.000138071
0.00010114
4.89176e-05
0.000101139
6.24362e-05
0.000146326
9.63782e-05
0.000152281
)
;
    }
    ceiling
    {
        type            compressible::alphatWallFunction;
        Prt             0.85;
        value           nonuniform List<scalar> 
43
(
0.000264383
0.000363174
0.00063589
0.000583622
0.000503963
0.000436213
0.000383292
0.000342388
0.000310437
0.00028528
0.000265596
0.000250725
0.000239898
0.000232675
0.000228492
0.000226642
0.000226407
0.00022714
0.000228281
0.000229378
0.000230118
0.000230354
0.000230085
0.000229402
0.000228436
0.00022732
0.000226174
0.000225102
0.000224117
0.000223263
0.000222472
0.000221596
0.000220252
0.000218429
0.000216098
0.000212943
0.000208568
0.000202739
0.000204404
0.000184284
0.000490881
0.000561699
0.000858847
)
;
    }
    sWall
    {
        type            compressible::alphatWallFunction;
        Prt             0.85;
        value           uniform 0.00026345;
    }
    nWall
    {
        type            compressible::alphatWallFunction;
        Prt             0.85;
        value           nonuniform List<scalar> 6(0.000153736 0.000156961 0.00015982 0.000263734 0.000251118 0.000183989);
    }
    sideWalls
    {
        type            empty;
    }
    glass1
    {
        type            compressible::alphatWallFunction;
        Prt             0.85;
        value           nonuniform List<scalar> 9(0.000114101 0.0002043 0.00027863 0.000344948 0.000403596 0.000456554 0.00050146 0.000505252 0.00048458);
    }
    glass2
    {
        type            compressible::alphatWallFunction;
        Prt             0.85;
        value           nonuniform List<scalar> 2(0.000245827 0.000269036);
    }
    sun
    {
        type            compressible::alphatWallFunction;
        Prt             0.85;
        value           nonuniform List<scalar> 
14
(
0.000117134
0.00011948
0.000100146
0.000102313
0.000105957
0.000109676
0.000113364
0.000117058
0.000120881
0.000124844
0.000128344
0.000131234
0.000133474
0.000135169
)
;
    }
    Table_master
    {
        type            compressible::alphatWallFunction;
        Prt             0.85;
        value           nonuniform List<scalar> 9(2.60055e-05 2.54066e-05 2.95691e-05 3.77574e-05 4.96784e-05 6.4303e-05 8.08868e-05 9.98595e-05 0.00012303);
    }
    Table_slave
    {
        type            compressible::alphatWallFunction;
        Prt             0.85;
        value           nonuniform List<scalar> 9(0.000128884 0.00012992 0.000130546 0.000131015 0.00013178 0.000133451 0.000136941 0.000143702 0.00015639);
    }
    inlet
    {
        type            fixedValue;
        value           uniform 1.94e-05;
    }
    outlet
    {
        type            zeroGradient;
    }
}


// ************************************************************************* //
