/*--------------------------------*- C++ -*----------------------------------*\
  =========                 |
  \\      /  F ield         | OpenFOAM: The Open Source CFD Toolbox
   \\    /   O peration     | Website:  https://openfoam.org
    \\  /    A nd           | Version:  6
     \\/     M anipulation  |
\*---------------------------------------------------------------------------*/
FoamFile
{
    version     2.0;
    format      ascii;
    class       volScalarField;
    location    "100";
    object      epsilon;
}
// * * * * * * * * * * * * * * * * * * * * * * * * * * * * * * * * * * * * * //

dimensions      [0 2 -3 0 0 0 0];

internalField   nonuniform List<scalar> 
459
(
0.000167757
0.000176923
9.33143e-05
9.71987e-05
0.00010817
0.000120552
0.000134011
0.000148768
0.000165563
0.000182591
0.00019748
0.0002083
0.000213228
0.000210867
0.000197253
2.92374e-05
3.87383e-05
4.01467e-05
2.04086e-05
7.91448e-06
4.9535e-06
4.11466e-06
3.691e-06
3.24333e-06
2.9515e-06
2.92304e-06
3.106e-06
3.51814e-06
5.35363e-06
1.49027e-05
3.91107e-05
5.60227e-05
4.96839e-05
3.55616e-05
0.00100171
0.00232064
0.000199527
7.93118e-05
7.85745e-05
8.58261e-05
9.45706e-05
0.000104781
0.000117099
0.000131368
0.000147056
0.000163435
0.000178456
0.000187916
0.000192773
0.000247207
9.06603e-05
4.77078e-05
0.000114459
7.8644e-05
3.35733e-05
1.83262e-05
1.04547e-05
4.03408e-06
2.96578e-06
3.13652e-06
4.11724e-06
6.11383e-06
9.38604e-06
1.56774e-05
3.20416e-05
6.31353e-05
8.78324e-05
9.79236e-05
0.000119623
6.61361e-05
0.00266829
0.00783112
0.000648887
0.000115929
8.7085e-05
9.20432e-05
0.000101703
0.000113527
0.00012742
0.000143348
0.000160574
0.000178514
0.000196133
0.000211624
0.000224926
0.000245335
0.000298423
0.000248016
0.000235268
0.000110606
8.65621e-05
8.30685e-05
8.03329e-05
7.97377e-06
3.53954e-06
4.97183e-06
9.11567e-06
1.73357e-05
3.08961e-05
5.22597e-05
8.87809e-05
0.000161088
0.00013597
0.00014707
0.000168164
0.000144239
0.00521026
0.0165197
0.00165505
0.000199569
0.000106376
0.000106127
0.000116799
0.000130553
0.000146253
0.000163777
0.000181312
0.00019828
0.000214536
0.000230346
0.00024849
0.000279611
0.000349627
0.000492254
0.000256818
0.000145201
0.000122953
0.000129852
0.000149285
0.000184801
0.000255299
0.000259996
0.000265581
0.000270161
0.000274064
0.000278988
0.000288186
0.000307649
0.000362949
0.000258538
0.000316316
0.000469566
0.000576016
0.00849665
0.0268913
0.00345305
0.000385856
0.000147294
0.00013321
0.000144851
0.000162658
0.000183205
0.00020526
0.000224895
0.000242054
0.000257014
0.000268302
0.000272494
0.000266554
0.000250826
0.00022076
0.000161952
0.000133735
0.000126628
0.000131368
0.000141346
0.00015406
0.000167552
0.000178931
0.00019224
0.000208432
0.000228996
0.000256809
0.000296379
0.000353209
0.000431046
0.000514955
0.000653525
0.000845304
0.000957086
0.00141023
0.000958512
0.00062865
0.0124702
0.0351744
0.00637932
0.000959675
0.000301968
0.000218107
0.000217814
0.000236542
0.00026249
0.00028641
0.00030233
0.000314751
0.000327596
0.000340402
0.000347966
0.000342313
0.000316945
0.000273989
0.000226072
0.000190385
0.000171642
0.000167369
0.000172103
0.000181832
0.000194166
0.000209098
0.000228206
0.000252676
0.000284661
0.000328712
0.000392646
0.000486666
0.000620522
0.000799812
0.00102917
0.00128927
0.00144138
0.0013977
0.000805707
0.000701954
0.0167904
0.037866
0.0118081
0.00350667
0.00128348
0.000673851
0.000515457
0.000473911
0.000476381
0.000464608
0.000441174
0.000420558
0.000411071
0.000412664
0.000418099
0.000415713
0.000394846
0.000354739
0.000305781
0.000262285
0.000233113
0.000219435
0.00021799
0.00022518
0.000238759
0.000258911
0.000287061
0.00032454
0.000372936
0.000435353
0.000518065
0.000629737
0.000779684
0.000972875
0.00120084
0.00142352
0.00155107
0.00152233
0.00134448
0.000673272
0.0172409
0.0427692
0.0230133
0.01416
0.00721349
0.00352921
0.00200488
0.00137817
0.00107838
0.000870473
0.00070898
0.000593172
0.000519461
0.000481136
0.000467547
0.00046184
0.000446975
0.000416091
0.000373684
0.000330633
0.000296469
0.000275371
0.000267163
0.000270114
0.000283094
0.000307127
0.000345058
0.000400714
0.000478483
0.000583012
0.000719773
0.000889335
0.00108266
0.00128558
0.00148883
0.00169549
0.00193227
0.00222056
0.00252762
0.00153553
0.0151444
0.0236873
0.0441814
0.0324276
0.0190337
0.0107295
0.0061847
0.00375852
0.00239913
0.00160216
0.00112931
0.000841779
0.000664493
0.000557552
0.000498435
0.00046892
0.000451084
0.000430988
0.000403393
0.000371645
0.000342322
0.000320427
0.00030821
0.000306154
0.000314468
0.000334573
0.000369691
0.000425064
0.000507241
0.000619085
0.000762101
0.000943865
0.00116925
0.0014512
0.00181847
0.00224507
0.00242826
0.00279465
0.00532234
0.00197548
0.115311
0.119281
0.0307111
0.0136218
0.00731624
0.00434837
0.00278368
0.00189131
0.00134572
0.000997735
0.000768948
0.000616391
0.00051606
0.000453272
0.000416412
0.000394381
0.000378076
0.000362897
0.000348622
0.000337139
0.000330491
0.000330161
0.000337299
0.000353443
0.000381052
0.000423667
0.000485452
0.000569095
0.000676251
0.000804264
0.000943104
0.00107815
0.0011909
0.00124304
0.00121588
0.00116084
0.0019502
0.00178021
0.0882736
0.0698854
0.0225689
0.0108317
0.00623122
0.00393637
0.00265273
0.0018775
0.00138124
0.0010488
0.000817798
0.000653319
0.000534977
0.000450467
0.000391905
0.000353551
0.000330547
0.000318653
0.000314521
0.0003159
0.000321563
0.000331129
0.00034496
0.000364283
0.000391528
0.00043063
0.000486361
0.000561788
0.000655389
0.000761423
0.000864014
0.000941783
0.000975641
0.000950416
0.00088016
0.00082697
0.00134489
0.00122517
0.00916657
0.0180199
0.0401944
0.0304986
0.0156493
0.00911791
0.00587674
0.00404508
0.00291232
0.00216736
0.00165773
0.00129958
0.0010394
0.000846059
0.000700341
0.000589825
0.000506201
0.000443707
0.000398117
0.000366076
0.000344766
0.000331817
0.000325342
0.000324013
0.000327146
0.000334817
0.00034806
0.000369124
0.000401505
0.000449242
0.000526134
0.000633141
0.000756046
0.000864364
0.000924413
0.000914747
0.000869899
0.0008007
0.000767504
0.000627284
)
;

boundaryField
{
    floor
    {
        Cmu             0.09;
        kappa           0.41;
        E               9.8;
        type            epsilonWallFunction;
        value           nonuniform List<scalar> 
29
(
0.000197253
2.92374e-05
3.87383e-05
4.01467e-05
2.04086e-05
7.91448e-06
4.9535e-06
4.11466e-06
3.691e-06
3.24333e-06
2.9515e-06
2.92304e-06
3.106e-06
3.51814e-06
5.35363e-06
1.49027e-05
3.91107e-05
5.60227e-05
4.96839e-05
3.55616e-05
3.55616e-05
6.61361e-05
0.000144239
0.000576016
0.000197253
2.92374e-05
4.77078e-05
0.000248016
0.000492254
)
;
    }
    ceiling
    {
        Cmu             0.09;
        kappa           0.41;
        E               9.8;
        type            epsilonWallFunction;
        value           nonuniform List<scalar> 
43
(
0.00916657
0.0180199
0.0401944
0.0304986
0.0156493
0.00911791
0.00587674
0.00404508
0.00291232
0.00216736
0.00165773
0.00129958
0.0010394
0.000846059
0.000700341
0.000589825
0.000506201
0.000443707
0.000398117
0.000366076
0.000344766
0.000331817
0.000325342
0.000324013
0.000327146
0.000334817
0.00034806
0.000369124
0.000401505
0.000449242
0.000526134
0.000633141
0.000756046
0.000864364
0.000924413
0.000914747
0.000869899
0.0008007
0.000767504
0.000627284
0.0151444
0.0236873
0.0882736
)
;
    }
    sWall
    {
        Cmu             0.09;
        kappa           0.41;
        E               9.8;
        type            epsilonWallFunction;
        value           uniform 0.00916657;
    }
    nWall
    {
        Cmu             0.09;
        kappa           0.41;
        E               9.8;
        type            epsilonWallFunction;
        value           nonuniform List<scalar> 6(0.00062865 0.000701954 0.000673272 0.00178021 0.00122517 0.000627284);
    }
    sideWalls
    {
        type            empty;
    }
    glass1
    {
        Cmu             0.09;
        kappa           0.41;
        E               9.8;
        type            epsilonWallFunction;
        value           nonuniform List<scalar> 9(0.000167757 0.00100171 0.00266829 0.00521026 0.00849665 0.0124702 0.0167904 0.0172409 0.0151444);
    }
    glass2
    {
        Cmu             0.09;
        kappa           0.41;
        E               9.8;
        type            epsilonWallFunction;
        value           nonuniform List<scalar> 2(0.00153553 0.00197548);
    }
    sun
    {
        Cmu             0.09;
        kappa           0.41;
        E               9.8;
        type            epsilonWallFunction;
        value           nonuniform List<scalar> 
14
(
0.000167757
0.000176923
9.33143e-05
9.71987e-05
0.00010817
0.000120552
0.000134011
0.000148768
0.000165563
0.000182591
0.00019748
0.0002083
0.000213228
0.000210867
)
;
    }
    heatsource1
    {
        Cmu             0.09;
        kappa           0.41;
        E               9.8;
        type            epsilonWallFunction;
        value           nonuniform List<scalar> 3(0.00141023 0.000958512 0.00062865);
    }
    heatsource2
    {
        Cmu             0.09;
        kappa           0.41;
        E               9.8;
        type            epsilonWallFunction;
        value           nonuniform List<scalar> 4(0.000247207 9.06603e-05 9.06603e-05 0.000298423);
    }
    Table_master
    {
        Cmu             0.09;
        kappa           0.41;
        E               9.8;
        type            epsilonWallFunction;
        value           nonuniform List<scalar> 9(7.97377e-06 3.53954e-06 4.97183e-06 9.11567e-06 1.73357e-05 3.08961e-05 5.22597e-05 8.87809e-05 0.000161088);
    }
    Table_slave
    {
        Cmu             0.09;
        kappa           0.41;
        E               9.8;
        type            epsilonWallFunction;
        value           nonuniform List<scalar> 9(0.000255299 0.000259996 0.000265581 0.000270161 0.000274064 0.000278988 0.000288186 0.000307649 0.000362949);
    }
    inlet
    {
        type            turbulentMixingLengthDissipationRateInlet;
        mixingLength    0.01;
        phi             phi;
        k               k;
        value           uniform 0.115311;
    }
    outlet
    {
        type            zeroGradient;
    }
}


// ************************************************************************* //
