/*--------------------------------*- C++ -*----------------------------------*\
  =========                 |
  \\      /  F ield         | OpenFOAM: The Open Source CFD Toolbox
   \\    /   O peration     | Website:  https://openfoam.org
    \\  /    A nd           | Version:  6
     \\/     M anipulation  |
\*---------------------------------------------------------------------------*/
FoamFile
{
    version     2.0;
    format      ascii;
    class       volScalarField;
    location    "100";
    object      epsilon;
}
// * * * * * * * * * * * * * * * * * * * * * * * * * * * * * * * * * * * * * //

dimensions      [0 2 -3 0 0 0 0];

internalField   nonuniform List<scalar> 
458
(
0.000127361
0.000134751
8.02541e-05
8.54103e-05
9.45957e-05
0.000104667
0.00011538
0.000126863
0.000139574
0.000153673
0.000166931
0.000178468
0.000187781
0.00019505
0.000198748
1.14626e-05
1.39583e-05
7.87964e-06
3.93297e-06
2.7301e-06
2.32249e-06
2.43049e-06
3.09409e-06
4.50577e-06
6.96313e-06
1.09104e-05
1.69876e-05
2.62943e-05
4.045e-05
5.80346e-05
6.20119e-05
4.87439e-05
2.69784e-05
0.000745906
0.00167199
0.000156215
6.78087e-05
6.67554e-05
7.18618e-05
7.79861e-05
8.49796e-05
9.32923e-05
0.000103421
0.000114926
0.000127956
0.000142621
0.000159385
0.000185935
0.000264597
0.000207844
8.25436e-05
2.14899e-05
6.50427e-05
1.37233e-05
5.06112e-06
2.72065e-06
1.83455e-06
1.9397e-06
2.60459e-06
4.17069e-06
7.29149e-06
1.29101e-05
2.2179e-05
3.64931e-05
5.58401e-05
6.45137e-05
6.34343e-05
6.18809e-05
3.54693e-05
0.00197962
0.00563413
0.000495478
9.78399e-05
7.38563e-05
7.70846e-05
8.41642e-05
9.27321e-05
0.000102587
0.000113843
0.000126109
0.000138969
0.000151904
0.000163776
0.000174092
0.000186533
0.000202027
0.000247792
7.16461e-05
7.6296e-05
3.1033e-05
2.1431e-05
1.71952e-05
2.73932e-06
2.614e-06
3.56544e-06
6.1206e-06
1.18598e-05
2.31671e-05
4.34596e-05
7.93247e-05
0.000146723
0.000106696
0.000107716
0.000120003
0.000150769
0.00391214
0.0120753
0.00130221
0.000173964
9.32193e-05
9.14968e-05
9.98915e-05
0.000111039
0.000123702
0.000137532
0.000151783
0.000165921
0.000179717
0.00019206
0.000200962
0.00020607
0.000210994
0.000227535
0.000279625
0.000113084
8.30219e-05
8.25863e-05
9.7713e-05
0.0001233
0.000168786
0.000172911
0.000175441
0.000177364
0.000180519
0.000187527
0.000202749
0.000234659
0.000303815
0.000175715
0.000197926
0.000232749
0.000388184
0.00648183
0.0199278
0.00284023
0.000369005
0.000142399
0.000123032
0.000130443
0.000144267
0.000160736
0.000178424
0.000194881
0.000210706
0.000227096
0.000243423
0.000256157
0.000260536
0.000252472
0.000228808
0.000187179
0.00012984
0.000106991
0.00010267
0.000106693
0.000113219
0.000119042
0.000122052
0.000125068
0.000129187
0.000135667
0.000146245
0.000163246
0.000189204
0.000224911
0.000263053
0.000322731
0.000396131
0.00047438
0.000678168
0.000437136
0.000290132
0.00965473
0.0263884
0.00548009
0.00101974
0.000346574
0.00023279
0.00021768
0.000225596
0.000242031
0.00025715
0.000266269
0.000274838
0.000287582
0.000305699
0.00032583
0.000341451
0.000344146
0.000324462
0.000280254
0.000225868
0.000184042
0.000163959
0.000157811
0.000157141
0.000158372
0.000160053
0.000162493
0.000166289
0.000172497
0.000183039
0.000201139
0.00023141
0.000278815
0.000346527
0.000436228
0.00054141
0.000633446
0.000677379
0.000424486
0.00030914
0.0130882
0.0286783
0.0102356
0.00356178
0.00147495
0.000791808
0.00057648
0.000496217
0.000472057
0.000438789
0.000403719
0.00037659
0.000364318
0.00036871
0.000386087
0.000408415
0.00042389
0.000418416
0.00038577
0.000335925
0.000288388
0.000255147
0.000236411
0.000227496
0.000224219
0.000224114
0.000226334
0.0002308
0.000238036
0.000249563
0.000268737
0.000301572
0.00035593
0.000437943
0.000548923
0.000680679
0.00080528
0.000874237
0.000818042
0.000326731
0.0134267
0.0323602
0.0183341
0.0122595
0.00683195
0.00366924
0.00217859
0.00146802
0.00108739
0.000846808
0.000677458
0.000560564
0.000486916
0.000449926
0.00044293
0.000457017
0.000478959
0.000490109
0.000476126
0.000440849
0.000398625
0.00036236
0.000336785
0.000321015
0.000312572
0.000309353
0.000310243
0.00031488
0.000323557
0.000337574
0.000360211
0.00039835
0.000462939
0.0005656
0.000712752
0.000900356
0.00112709
0.00141128
0.00175983
0.00127083
0.0117453
0.0182078
0.038694
0.0289499
0.0171524
0.00981606
0.0057546
0.003543
0.00228645
0.00154385
0.00110112
0.000833232
0.000671693
0.000579168
0.000534791
0.000524714
0.00053549
0.00055093
0.000555528
0.000543644
0.000520153
0.000493686
0.00047023
0.000452146
0.000439608
0.000431991
0.000428656
0.000429209
0.000433618
0.000442484
0.00045772
0.000483776
0.000525099
0.00059023
0.000688542
0.000825529
0.000998365
0.00124695
0.00300971
0.00169257
0.106931
0.107897
0.0279336
0.0124142
0.00674731
0.00407113
0.00265263
0.00184651
0.00136294
0.00106962
0.000892241
0.000787972
0.000731097
0.00070607
0.000702684
0.00071202
0.000724464
0.000731848
0.000730586
0.000721847
0.00070888
0.00069473
0.000681418
0.000669967
0.000660737
0.000653698
0.000648679
0.000645486
0.000644254
0.00064608
0.00065118
0.000660023
0.000674178
0.000693549
0.000724022
0.000817389
0.00138933
0.00157093
0.0744354
0.0592502
0.0222829
0.0107516
0.00614014
0.00394172
0.00278125
0.00213218
0.00176325
0.00155728
0.00145371
0.00141342
0.00140861
0.00142001
0.00143501
0.00144547
0.0014462
0.00143527
0.0014144
0.00138744
0.00135832
0.00132988
0.00130357
0.00127961
0.00125717
0.0012346
0.00120984
0.00118057
0.00114555
0.00110372
0.00105963
0.00101983
0.000988186
0.000970773
0.000971791
0.00101132
0.00194917
0.00134467
0.0016246
0.00449462
0.0277354
0.0208735
0.0128849
0.0080363
0.0052762
0.00366109
0.00266956
0.00203514
0.00161908
0.0013473
0.00117077
0.00106235
0.00100274
0.000976929
0.000973361
0.00098295
0.000998231
0.00101306
0.00102302
0.00102593
0.00102174
0.00101178
0.000997978
0.000982278
0.000966353
0.000951586
0.000938147
0.000926552
0.000915879
0.000904206
0.00088669
0.000863469
0.000834506
0.000796538
0.000746047
0.000682409
0.000699904
0.000506404
)
;

boundaryField
{
    floor
    {
        Cmu             0.09;
        kappa           0.41;
        E               9.8;
        type            epsilonWallFunction;
        value           nonuniform List<scalar> 
36
(
0.000198748
1.14626e-05
1.39583e-05
7.87964e-06
3.93297e-06
2.7301e-06
2.32249e-06
2.43049e-06
3.09409e-06
4.50577e-06
6.96313e-06
1.09104e-05
1.69876e-05
2.62943e-05
4.045e-05
5.80346e-05
6.20119e-05
4.87439e-05
2.69784e-05
2.69784e-05
3.54693e-05
0.000150769
0.000388184
0.000678168
0.000437136
0.000290132
0.000198748
0.000264597
0.000207844
8.25436e-05
1.14626e-05
8.25436e-05
2.14899e-05
0.000247792
7.16461e-05
0.000279625
)
;
    }
    ceiling
    {
        Cmu             0.09;
        kappa           0.41;
        E               9.8;
        type            epsilonWallFunction;
        value           nonuniform List<scalar> 
43
(
0.0016246
0.00449462
0.0277354
0.0208735
0.0128849
0.0080363
0.0052762
0.00366109
0.00266956
0.00203514
0.00161908
0.0013473
0.00117077
0.00106235
0.00100274
0.000976929
0.000973361
0.00098295
0.000998231
0.00101306
0.00102302
0.00102593
0.00102174
0.00101178
0.000997978
0.000982278
0.000966353
0.000951586
0.000938147
0.000926552
0.000915879
0.000904206
0.00088669
0.000863469
0.000834506
0.000796538
0.000746047
0.000682409
0.000699904
0.000506404
0.0117453
0.0182078
0.0744354
)
;
    }
    sWall
    {
        Cmu             0.09;
        kappa           0.41;
        E               9.8;
        type            epsilonWallFunction;
        value           uniform 0.0016246;
    }
    nWall
    {
        Cmu             0.09;
        kappa           0.41;
        E               9.8;
        type            epsilonWallFunction;
        value           nonuniform List<scalar> 6(0.000290132 0.00030914 0.000326731 0.00157093 0.00134467 0.000506404);
    }
    sideWalls
    {
        type            empty;
    }
    glass1
    {
        Cmu             0.09;
        kappa           0.41;
        E               9.8;
        type            epsilonWallFunction;
        value           nonuniform List<scalar> 9(0.000127361 0.000745906 0.00197962 0.00391214 0.00648183 0.00965473 0.0130882 0.0134267 0.0117453);
    }
    glass2
    {
        Cmu             0.09;
        kappa           0.41;
        E               9.8;
        type            epsilonWallFunction;
        value           nonuniform List<scalar> 2(0.00127083 0.00169257);
    }
    sun
    {
        Cmu             0.09;
        kappa           0.41;
        E               9.8;
        type            epsilonWallFunction;
        value           nonuniform List<scalar> 
14
(
0.000127361
0.000134751
8.02541e-05
8.54103e-05
9.45957e-05
0.000104667
0.00011538
0.000126863
0.000139574
0.000153673
0.000166931
0.000178468
0.000187781
0.00019505
)
;
    }
    Table_master
    {
        Cmu             0.09;
        kappa           0.41;
        E               9.8;
        type            epsilonWallFunction;
        value           nonuniform List<scalar> 9(2.73932e-06 2.614e-06 3.56544e-06 6.1206e-06 1.18598e-05 2.31671e-05 4.34596e-05 7.93247e-05 0.000146723);
    }
    Table_slave
    {
        Cmu             0.09;
        kappa           0.41;
        E               9.8;
        type            epsilonWallFunction;
        value           nonuniform List<scalar> 9(0.000168786 0.000172911 0.000175441 0.000177364 0.000180519 0.000187527 0.000202749 0.000234659 0.000303815);
    }
    inlet
    {
        type            turbulentMixingLengthDissipationRateInlet;
        mixingLength    0.01;
        phi             phi;
        k               k;
        value           uniform 0.106931;
    }
    outlet
    {
        type            zeroGradient;
    }
}


// ************************************************************************* //
