/*--------------------------------*- C++ -*----------------------------------*\
  =========                 |
  \\      /  F ield         | OpenFOAM: The Open Source CFD Toolbox
   \\    /   O peration     | Website:  https://openfoam.org
    \\  /    A nd           | Version:  6
     \\/     M anipulation  |
\*---------------------------------------------------------------------------*/
FoamFile
{
    version     2.0;
    format      ascii;
    class       volScalarField;
    location    "100";
    object      epsilon;
}
// * * * * * * * * * * * * * * * * * * * * * * * * * * * * * * * * * * * * * //

dimensions      [0 2 -3 0 0 0 0];

internalField   nonuniform List<scalar> 
460
(
8.60802e-05
9.53691e-05
6.3065e-05
6.88989e-05
7.81598e-05
8.85074e-05
9.96405e-05
0.000111466
0.000123987
0.000137321
0.000151758
0.000167916
0.000186375
0.00020474
0.000221816
0.00023642
0.000249151
0.000263264
8.63634e-06
8.22658e-06
1.35961e-05
1.83975e-05
2.36386e-05
2.93821e-05
3.60258e-05
4.40435e-05
5.40873e-05
6.71572e-05
8.48471e-05
0.000109711
0.000145031
0.000188222
0.000195819
6.19843e-05
0.00045672
0.000900681
0.000102057
5.25355e-05
5.33774e-05
5.82757e-05
6.37386e-05
6.94789e-05
7.55932e-05
8.23049e-05
8.9961e-05
9.90916e-05
0.000110317
0.000123489
0.000139167
0.000158431
0.000184523
0.000232668
0.000379837
0.000364137
0.000130606
9.9343e-06
9.67415e-06
1.24282e-05
1.27219e-05
1.52442e-05
1.86586e-05
2.32861e-05
2.93466e-05
3.73181e-05
4.80432e-05
6.28316e-05
8.36478e-05
0.000113217
0.000148017
0.000195518
9.54557e-05
0.0012227
0.00314548
0.000299898
7.05073e-05
5.4969e-05
5.71951e-05
6.20348e-05
6.77305e-05
7.41575e-05
8.14903e-05
9.00139e-05
0.000100099
0.00011219
0.000126435
0.000142772
0.000160665
0.000178785
0.000197263
0.000228573
0.00033461
0.000156768
1.47233e-05
1.24453e-05
1.16448e-05
1.15124e-05
1.4051e-05
1.77774e-05
2.28971e-05
2.97311e-05
3.91521e-05
5.26865e-05
7.28879e-05
0.000104216
0.000152661
0.00017473
0.00022327
0.000175397
0.00252875
0.0072724
0.000787918
0.000115759
6.28604e-05
6.03294e-05
6.48225e-05
7.12188e-05
7.87973e-05
8.75791e-05
9.77617e-05
0.000109625
0.00012351
0.000139771
0.000157981
0.000176971
0.00019416
0.000206111
0.000211452
0.000212864
0.000236826
2.56129e-05
2.09963e-05
1.23298e-05
1.33132e-05
1.696e-05
2.25252e-05
2.70166e-05
3.41633e-05
4.55629e-05
6.51817e-05
0.000102026
0.000176469
0.000340101
0.000208816
0.000266831
0.000324377
0.00446116
0.013313
0.00177016
0.000212034
7.73338e-05
6.50164e-05
6.82889e-05
7.5352e-05
8.43452e-05
9.50684e-05
0.000107692
0.000122511
0.000139869
0.000160394
0.000183658
0.000208023
0.000229704
0.000242511
0.000239271
0.000215921
0.000180811
0.000165598
5.47798e-05
3.84991e-05
3.09788e-05
4.4383e-05
7.16139e-05
0.000127776
0.000142995
0.000157292
0.000174486
0.00019828
0.000234791
0.000301466
0.000443907
0.000248466
0.000343749
0.000560039
0.00699465
0.0211139
0.00347965
0.000423784
0.000107033
7.32567e-05
7.30347e-05
8.00964e-05
9.02646e-05
0.000102894
0.000118196
0.000136735
0.000159328
0.00018694
0.000220254
0.000257939
0.000295739
0.000325991
0.000339367
0.000328009
0.000289086
0.000225761
0.000140112
8.17838e-05
6.87569e-05
7.45182e-05
8.77147e-05
0.000103333
0.000113772
0.000123094
0.000133096
0.000144875
0.000160156
0.000183048
0.000222687
0.000277991
0.000388775
0.000549513
0.00077232
0.00045001
0.0100407
0.0297683
0.00612294
0.000913654
0.000186828
9.64014e-05
8.62479e-05
9.16071e-05
0.000102177
0.000115964
0.000132964
0.000154048
0.000181025
0.00021678
0.000263264
0.000320022
0.000381419
0.000436111
0.000470231
0.000470989
0.000429557
0.000347198
0.000247901
0.000177185
0.00014667
0.00013718
0.000139665
0.000147764
0.000156923
0.000166508
0.000176494
0.00018689
0.000199095
0.000216415
0.000248941
0.000316253
0.000436507
0.000626444
0.000753786
0.000637811
0.0140444
0.0356104
0.00970902
0.00203646
0.000490502
0.000202563
0.000147334
0.000141386
0.000148346
0.000160443
0.000176444
0.000197163
0.000225537
0.000268705
0.000330605
0.000412332
0.000504071
0.000587095
0.000642287
0.000655687
0.000619259
0.000536128
0.000432453
0.00034289
0.000290312
0.000262519
0.00025188
0.000251998
0.00025806
0.000267851
0.000277928
0.000288482
0.000300588
0.000317283
0.000346699
0.000402908
0.000505701
0.000722639
0.00116952
0.000968582
0.0169548
0.0394743
0.0136535
0.00590436
0.00255513
0.00107731
0.000566769
0.000416758
0.000362076
0.000337893
0.000332645
0.000345809
0.000376773
0.000426871
0.000507985
0.000622223
0.000749585
0.00085753
0.00092123
0.000932095
0.00089207
0.000810768
0.000711846
0.00062418
0.000558634
0.000517546
0.000495097
0.000487277
0.000489976
0.000497119
0.000506879
0.000518538
0.0005329
0.00055288
0.000584509
0.000635714
0.000717131
0.000905449
0.00159305
0.00140696
0.0109845
0.0139658
0.0113083
0.00798359
0.00524833
0.0033909
0.00222179
0.0015072
0.0010821
0.000839608
0.000715009
0.000669628
0.000679879
0.000753917
0.00090276
0.00111352
0.00133535
0.00150132
0.00157124
0.00155158
0.00147678
0.00138168
0.00128963
0.00121503
0.00115945
0.00111939
0.00109523
0.00108515
0.00108408
0.00108892
0.00109765
0.00110956
0.00112546
0.0011478
0.00118085
0.00122956
0.00130093
0.00144484
0.00195268
0.00158638
0.00676477
0.00398557
0.00272077
0.00197365
0.00151644
0.00124134
0.0010895
0.00102917
0.00104805
0.0011574
0.00139852
0.00182236
0.00241477
0.00302966
0.00346741
0.00362294
0.00353618
0.00331919
0.00307314
0.00285859
0.0026987
0.00259299
0.00253221
0.00250471
0.00250065
0.00251189
0.00253182
0.00255628
0.00258405
0.0026169
0.00265922
0.00271609
0.00278838
0.00287545
0.00301654
0.00275699
0.00153461
0.001404
0.000764996
0.000795757
0.0015109
0.00154681
0.00138014
0.00120208
0.00105239
0.000935155
0.00084671
0.000782823
0.000740624
0.000719351
0.000724309
0.00076504
0.000853832
0.000996425
0.0011723
0.00134434
0.00147948
0.00156394
0.00160231
0.00160833
0.00159654
0.00157782
0.00155897
0.00154356
0.00153298
0.00152696
0.00152408
0.00152232
0.00151967
0.00151452
0.00150581
0.00149272
0.00147342
0.00144366
0.00139388
0.00122222
0.000774364
)
;

boundaryField
{
    floor
    {
        Cmu             0.09;
        kappa           0.41;
        E               9.8;
        type            epsilonWallFunction;
        value           nonuniform List<scalar> 
36
(
0.000263264
8.63634e-06
8.22658e-06
1.35961e-05
1.83975e-05
2.36386e-05
2.93821e-05
3.60258e-05
4.40435e-05
5.40873e-05
6.71572e-05
8.48471e-05
0.000109711
0.000145031
0.000188222
0.000195819
6.19843e-05
6.19843e-05
9.54557e-05
0.000175397
0.000324377
0.000560039
0.00077232
0.00045001
0.000263264
0.000379837
0.000364137
0.000130606
8.63634e-06
0.000130606
9.9343e-06
0.000156768
1.47233e-05
0.000236826
2.56129e-05
0.000165598
)
;
    }
    ceiling
    {
        Cmu             0.09;
        kappa           0.41;
        E               9.8;
        type            epsilonWallFunction;
        value           nonuniform List<scalar> 
47
(
0.001404
0.000764996
0.000795757
0.0015109
0.00154681
0.00138014
0.00120208
0.00105239
0.000935155
0.00084671
0.000782823
0.000740624
0.000719351
0.000724309
0.00076504
0.000853832
0.000996425
0.0011723
0.00134434
0.00147948
0.00156394
0.00160231
0.00160833
0.00159654
0.00157782
0.00155897
0.00154356
0.00153298
0.00152696
0.00152408
0.00152232
0.00151967
0.00151452
0.00150581
0.00149272
0.00147342
0.00144366
0.00139388
0.00122222
0.000774364
0.0109845
0.0139658
0.0113083
0.001404
0.000764996
0.00676477
0.000795757
)
;
    }
    sWall
    {
        Cmu             0.09;
        kappa           0.41;
        E               9.8;
        type            epsilonWallFunction;
        value           uniform 0.001404;
    }
    nWall
    {
        Cmu             0.09;
        kappa           0.41;
        E               9.8;
        type            epsilonWallFunction;
        value           nonuniform List<scalar> 5(0.00045001 0.000637811 0.000968582 0.00153461 0.000774364);
    }
    sideWalls
    {
        type            empty;
    }
    glass1
    {
        Cmu             0.09;
        kappa           0.41;
        E               9.8;
        type            epsilonWallFunction;
        value           nonuniform List<scalar> 10(8.60802e-05 0.00045672 0.0012227 0.00252875 0.00446116 0.00699465 0.0100407 0.0140444 0.0169548 0.0109845);
    }
    glass2
    {
        Cmu             0.09;
        kappa           0.41;
        E               9.8;
        type            epsilonWallFunction;
        value           nonuniform List<scalar> 2(0.00140696 0.00158638);
    }
    sun
    {
        Cmu             0.09;
        kappa           0.41;
        E               9.8;
        type            epsilonWallFunction;
        value           nonuniform List<scalar> 
17
(
8.60802e-05
9.53691e-05
6.3065e-05
6.88989e-05
7.81598e-05
8.85074e-05
9.96405e-05
0.000111466
0.000123987
0.000137321
0.000151758
0.000167916
0.000186375
0.00020474
0.000221816
0.00023642
0.000249151
)
;
    }
    Table_master
    {
        Cmu             0.09;
        kappa           0.41;
        E               9.8;
        type            epsilonWallFunction;
        value           nonuniform List<scalar> 8(2.25252e-05 2.70166e-05 3.41633e-05 4.55629e-05 6.51817e-05 0.000102026 0.000176469 0.000340101);
    }
    Table_slave
    {
        Cmu             0.09;
        kappa           0.41;
        E               9.8;
        type            epsilonWallFunction;
        value           nonuniform List<scalar> 8(0.000127776 0.000142995 0.000157292 0.000174486 0.00019828 0.000234791 0.000301466 0.000443907);
    }
    inlet
    {
        type            turbulentMixingLengthDissipationRateInlet;
        mixingLength    0.01;
        phi             phi;
        k               k;
        value           nonuniform 0();
    }
    outlet
    {
        type            zeroGradient;
    }
}


// ************************************************************************* //
