/*--------------------------------*- C++ -*----------------------------------*\
  =========                 |
  \\      /  F ield         | OpenFOAM: The Open Source CFD Toolbox
   \\    /   O peration     | Website:  https://openfoam.org
    \\  /    A nd           | Version:  6
     \\/     M anipulation  |
\*---------------------------------------------------------------------------*/
FoamFile
{
    version     2.0;
    format      ascii;
    class       volScalarField;
    location    "100";
    object      k;
}
// * * * * * * * * * * * * * * * * * * * * * * * * * * * * * * * * * * * * * //

dimensions      [0 2 -2 0 0 0 0];

internalField   nonuniform List<scalar> 
460
(
0.000604242
0.000646408
0.000490648
0.000520461
0.000566111
0.000615033
0.000665583
0.000717254
0.000770008
0.000824267
0.000881069
0.000942548
0.00101042
0.00107575
0.00113476
0.00118404
0.00122617
0.00127205
0.000130345
0.00012622
0.000176434
0.000215838
0.000255085
0.000294879
0.000337794
0.000386208
0.000442883
0.000511621
0.000597919
0.000709658
0.000854787
0.00101703
0.00104422
0.000485008
0.0018397
0.00372333
0.00108246
0.000921841
0.000977132
0.00105785
0.00114665
0.0012411
0.00134091
0.00144646
0.00155836
0.001677
0.00180402
0.00193316
0.00205401
0.00214425
0.00215718
0.00200096
0.0016939
0.00164689
0.000831372
0.000186056
0.000198554
0.000253248
0.000270321
0.000321476
0.000383243
0.000457514
0.00054592
0.000653158
0.000786575
0.000956895
0.00118185
0.00148997
0.0018786
0.00215319
0.00100443
0.00354701
0.00901323
0.00196574
0.00127383
0.00129272
0.00138205
0.00148805
0.00160279
0.0017248
0.00185424
0.00199191
0.00213868
0.00229463
0.00245937
0.00262047
0.00275463
0.00281994
0.00277725
0.00270775
0.00305644
0.00114307
0.000241862
0.000276651
0.000278365
0.00028489
0.000332821
0.000394813
0.000472072
0.000564303
0.000678287
0.000825112
0.00102196
0.00130303
0.00172287
0.00227215
0.0024498
0.00150685
0.00575777
0.0168307
0.0035676
0.00161861
0.001532
0.0016162
0.00173342
0.00186505
0.00200742
0.00215975
0.00232215
0.00249497
0.00267802
0.00287348
0.00306756
0.00323352
0.00332141
0.00326013
0.0029768
0.00237034
0.00150499
0.000349843
0.000413264
0.000276953
0.000260993
0.000268597
0.000280185
0.000316285
0.00036985
0.000448118
0.00056894
0.000766984
0.00110514
0.00171149
0.00263725
0.00274412
0.00227033
0.00840653
0.0267734
0.00636011
0.0020673
0.00172586
0.00178402
0.00190647
0.00205351
0.00221761
0.00239698
0.00259147
0.00280154
0.0030274
0.00327391
0.00353142
0.00377358
0.0039456
0.00395668
0.00368619
0.00302676
0.00202817
0.00110478
0.000887879
0.000774772
0.000610581
0.000674968
0.000783345
0.000929385
0.00100179
0.0010675
0.00114394
0.00124569
0.00139425
0.00164704
0.00213176
0.0031739
0.00337527
0.00326741
0.0113457
0.0383453
0.0107627
0.0028954
0.00193551
0.00191554
0.00202995
0.00218755
0.00237119
0.00257672
0.00280422
0.00305659
0.0033392
0.00365882
0.00402327
0.00441857
0.00480159
0.00509342
0.00519123
0.00499901
0.00447145
0.00363724
0.00258205
0.0018501
0.00163287
0.00170215
0.00188907
0.00211107
0.00228516
0.00242006
0.00253304
0.00263915
0.00276675
0.00296522
0.00334216
0.00394372
0.0043505
0.00423993
0.00321612
0.00251683
0.0144376
0.0502214
0.0171103
0.00475119
0.00235097
0.00208724
0.00216118
0.00232258
0.00252211
0.00274677
0.00299447
0.00326963
0.00358563
0.00396607
0.00443371
0.00499127
0.00559859
0.00616508
0.00656349
0.00665485
0.00631928
0.0055168
0.00442381
0.00356771
0.00315414
0.00303073
0.00308719
0.00322664
0.00337364
0.00350578
0.00361747
0.00371296
0.00381211
0.00395072
0.00422591
0.00477432
0.00553273
0.00642827
0.00637819
0.00364889
0.0180575
0.0587532
0.0252614
0.00873396
0.00371132
0.00261252
0.00251044
0.00265365
0.0028611
0.00309165
0.00333838
0.00360542
0.00391329
0.00431315
0.00485146
0.00554736
0.00634906
0.00713972
0.00777243
0.00809889
0.00799134
0.00740714
0.00651694
0.00564225
0.00507117
0.00475955
0.00465054
0.00467046
0.00475143
0.00485382
0.00493902
0.00500916
0.00507402
0.00516165
0.00534625
0.00573692
0.00640437
0.00762542
0.00949515
0.0048209
0.0204731
0.0627557
0.0319681
0.0182199
0.010329
0.00600671
0.00436299
0.0040005
0.00397997
0.00405397
0.00420232
0.0044388
0.00477043
0.00519952
0.00579897
0.0066077
0.00754126
0.00843644
0.00914357
0.00956023
0.00961453
0.00928697
0.00869472
0.00805979
0.00752589
0.00716387
0.00696138
0.00688791
0.0068989
0.00693751
0.00698209
0.00702182
0.00705846
0.00711076
0.00722298
0.00745307
0.00786194
0.00884009
0.0118185
0.00618346
0.018024
0.0262111
0.0227705
0.0188747
0.014712
0.0112132
0.00865823
0.00692149
0.00582268
0.00522218
0.00503448
0.00520404
0.00566576
0.00641454
0.00746852
0.00877009
0.0101194
0.0112499
0.0119838
0.0123116
0.012333
0.0121607
0.0118833
0.0115823
0.0113083
0.0110834
0.0109322
0.0108517
0.0108163
0.0108053
0.0108019
0.0107956
0.0107838
0.0107735
0.0107829
0.0108377
0.010974
0.011411
0.0132184
0.00669853
0.0114974
0.0104824
0.00901795
0.00774948
0.00682861
0.00625442
0.00600171
0.00605777
0.00644124
0.00724077
0.00864732
0.0108283
0.0136366
0.0164616
0.018587
0.0196526
0.0197802
0.0193416
0.0186946
0.0180755
0.0175951
0.0172718
0.0170858
0.0170049
0.0169995
0.0170386
0.0170941
0.0171454
0.0171829
0.0172073
0.0172279
0.0172542
0.0172761
0.0172672
0.0172841
0.0155235
0.00655175
0.00509239
0.00411183
0.00422133
0.00647268
0.00657485
0.00609364
0.00555755
0.00508604
0.00470093
0.00439964
0.00417544
0.004024
0.00394657
0.00396467
0.00411193
0.00442421
0.00490399
0.0054653
0.0059877
0.00638257
0.00662326
0.00673117
0.00674804
0.00671501
0.00666244
0.00660926
0.00656564
0.00653562
0.00651849
0.00651027
0.00650525
0.0064977
0.00648299
0.0064581
0.00642061
0.00636517
0.00627917
0.00613405
0.00561955
0.004149
)
;

boundaryField
{
    floor
    {
        type            kqRWallFunction;
        value           nonuniform List<scalar> 
36
(
0.00127205
0.000130345
0.00012622
0.000176434
0.000215838
0.000255085
0.000294879
0.000337794
0.000386208
0.000442883
0.000511621
0.000597919
0.000709658
0.000854787
0.00101703
0.00104422
0.000485008
0.000485008
0.00100443
0.00150685
0.00227033
0.00326741
0.00321612
0.00251683
0.00127205
0.0016939
0.00164689
0.000831372
0.000130345
0.000831372
0.000186056
0.00114307
0.000241862
0.00150499
0.000349843
0.00110478
)
;
    }
    ceiling
    {
        type            kqRWallFunction;
        value           nonuniform List<scalar> 
47
(
0.00509239
0.00411183
0.00422133
0.00647268
0.00657485
0.00609364
0.00555755
0.00508604
0.00470093
0.00439964
0.00417544
0.004024
0.00394657
0.00396467
0.00411193
0.00442421
0.00490399
0.0054653
0.0059877
0.00638257
0.00662326
0.00673117
0.00674804
0.00671501
0.00666244
0.00660926
0.00656564
0.00653562
0.00651849
0.00651027
0.00650525
0.0064977
0.00648299
0.0064581
0.00642061
0.00636517
0.00627917
0.00613405
0.00561955
0.004149
0.018024
0.0262111
0.0227705
0.00509239
0.00411183
0.0114974
0.00422133
)
;
    }
    sWall
    {
        type            kqRWallFunction;
        value           uniform 0.00509239;
    }
    nWall
    {
        type            kqRWallFunction;
        value           nonuniform List<scalar> 5(0.00251683 0.00364889 0.0048209 0.00655175 0.004149);
    }
    sideWalls
    {
        type            empty;
    }
    glass1
    {
        type            kqRWallFunction;
        value           nonuniform List<scalar> 10(0.000604242 0.0018397 0.00354701 0.00575777 0.00840653 0.0113457 0.0144376 0.0180575 0.0204731 0.018024);
    }
    glass2
    {
        type            kqRWallFunction;
        value           nonuniform List<scalar> 2(0.00618346 0.00669853);
    }
    sun
    {
        type            kqRWallFunction;
        value           nonuniform List<scalar> 
17
(
0.000604242
0.000646408
0.000490648
0.000520461
0.000566111
0.000615033
0.000665583
0.000717254
0.000770008
0.000824267
0.000881069
0.000942548
0.00101042
0.00107575
0.00113476
0.00118404
0.00122617
)
;
    }
    Table_master
    {
        type            kqRWallFunction;
        value           nonuniform List<scalar> 8(0.000280185 0.000316285 0.00036985 0.000448118 0.00056894 0.000766984 0.00110514 0.00171149);
    }
    Table_slave
    {
        type            kqRWallFunction;
        value           nonuniform List<scalar> 8(0.000929385 0.00100179 0.0010675 0.00114394 0.00124569 0.00139425 0.00164704 0.00213176);
    }
    inlet
    {
        type            turbulentIntensityKineticEnergyInlet;
        intensity       0.05;
        value           nonuniform 0();
    }
    outlet
    {
        type            zeroGradient;
    }
}


// ************************************************************************* //
