/*--------------------------------*- C++ -*----------------------------------*\
  =========                 |
  \\      /  F ield         | OpenFOAM: The Open Source CFD Toolbox
   \\    /   O peration     | Website:  https://openfoam.org
    \\  /    A nd           | Version:  6
     \\/     M anipulation  |
\*---------------------------------------------------------------------------*/
FoamFile
{
    version     2.0;
    format      ascii;
    class       volScalarField;
    location    "100";
    object      k;
}
// * * * * * * * * * * * * * * * * * * * * * * * * * * * * * * * * * * * * * //

dimensions      [0 2 -2 0 0 0 0];

internalField   nonuniform List<scalar> 
458
(
0.00100328
0.00104172
0.000737402
0.000768658
0.000822826
0.000880242
0.000939325
0.00100066
0.00106643
0.00113709
0.00120159
0.00125634
0.00129967
0.001333
0.0013498
0.000201438
0.000229704
0.000156868
9.8711e-05
7.73952e-05
6.94969e-05
7.16467e-05
8.41644e-05
0.000108131
0.000144527
0.000194957
0.000261878
0.000350393
0.000466919
0.000593941
0.000620788
0.000528731
0.000356441
0.00325978
0.00679066
0.00167003
0.00133805
0.00139706
0.00149689
0.00160743
0.00172352
0.00184278
0.00196544
0.00208048
0.00217349
0.00221573
0.00214989
0.00191041
0.00163353
0.00139069
0.00075136
0.000306303
0.000930669
0.000333941
0.000163254
0.000101452
8.00634e-05
8.17524e-05
9.68905e-05
0.000131566
0.000195644
0.000299329
0.000450772
0.000655473
0.000907036
0.00115316
0.00110236
0.000934018
0.000427808
0.00624868
0.0164405
0.00318429
0.00182908
0.00181577
0.00192724
0.00206587
0.00221519
0.0023692
0.00252356
0.00267266
0.00280105
0.00288553
0.00288543
0.00275902
0.00251199
0.00210242
0.00156363
0.000683604
0.00108951
0.000566642
0.000369578
0.000256551
7.75872e-05
7.52209e-05
9.25407e-05
0.000132695
0.000206234
0.000322216
0.000490006
0.000731714
0.00110244
0.00164757
0.00160886
0.00143788
0.00112284
0.00984036
0.0294832
0.00606216
0.0023896
0.002169
0.00227406
0.00244119
0.0026296
0.00282655
0.00302458
0.00321791
0.0033959
0.0035425
0.00362154
0.00357481
0.00334661
0.00289447
0.00224004
0.00169486
0.00152711
0.00133213
0.00120009
0.00117486
0.0011781
0.0012104
0.00123001
0.00124196
0.00125099
0.00126578
0.00129833
0.00136769
0.00150771
0.00179105
0.00239308
0.0025731
0.00257938
0.00210903
0.0137784
0.0438312
0.011101
0.00344535
0.00261698
0.00264137
0.00282009
0.00304384
0.00328432
0.00353038
0.00377217
0.00401593
0.00426294
0.00449022
0.00464236
0.00465485
0.00447807
0.004083
0.00346863
0.00271102
0.00237735
0.0022975
0.00233899
0.00240464
0.0024347
0.0024413
0.0024386
0.00243624
0.0024469
0.00248896
0.00258659
0.00276319
0.00302237
0.00331758
0.00361874
0.00389196
0.00396095
0.00305921
0.00228275
0.00173689
0.0179706
0.0556874
0.0193908
0.00655287
0.00383429
0.00338256
0.00345616
0.00365547
0.00388746
0.0041077
0.00431617
0.00455228
0.00484295
0.0051807
0.0055141
0.00576512
0.0058432
0.00564828
0.00514855
0.00448667
0.00392833
0.00363773
0.00353252
0.00349307
0.00346966
0.00344371
0.00341346
0.00338069
0.00335136
0.00333992
0.00337346
0.00348811
0.00370807
0.00401909
0.00437896
0.00470694
0.00481812
0.00457267
0.00302228
0.00181199
0.0220117
0.0612908
0.0321323
0.0156346
0.00860953
0.00602207
0.00530183
0.00512668
0.00511226
0.0050456
0.00499793
0.00503708
0.00521141
0.00552642
0.00593458
0.00634707
0.00664392
0.00668729
0.00640982
0.00590312
0.00537291
0.00497372
0.00472904
0.00459297
0.00451803
0.00447347
0.00444506
0.00442514
0.00440877
0.00439621
0.00440066
0.00445578
0.00460382
0.00485511
0.00516866
0.00544442
0.00551143
0.00521064
0.00439294
0.00188009
0.0223896
0.0626283
0.0441829
0.0340427
0.0227927
0.015146
0.0110939
0.00898591
0.00769896
0.00679657
0.00614527
0.00573196
0.00556533
0.00564653
0.00594406
0.0063795
0.00682455
0.00710852
0.00709489
0.00682428
0.00643731
0.00607426
0.00580008
0.0056178
0.00550759
0.00544934
0.00543058
0.00544389
0.00548392
0.00554731
0.00563706
0.00577093
0.00598074
0.00627637
0.00663313
0.00697636
0.00722326
0.00745559
0.00775364
0.0046499
0.020479
0.0274308
0.0569721
0.0512752
0.0376682
0.0266879
0.0192557
0.0144457
0.0112409
0.00906188
0.00761372
0.00667965
0.00613389
0.00590909
0.00596228
0.00623717
0.0066345
0.00701151
0.00723048
0.00724643
0.0071097
0.00690865
0.00671049
0.00654785
0.0064303
0.00635735
0.00632665
0.00633621
0.00638443
0.00647025
0.00659564
0.00677122
0.007005
0.00733662
0.00779382
0.0083365
0.00885039
0.00925229
0.0141176
0.00562894
0.13826
0.136463
0.0540223
0.0321102
0.0220059
0.0162066
0.0125836
0.0102255
0.00865134
0.00762965
0.00700885
0.00668668
0.00659293
0.00667858
0.00689844
0.00719148
0.00747771
0.00768703
0.00778974
0.00779919
0.00774864
0.00767059
0.00758884
0.00751836
0.00746806
0.00744302
0.00744569
0.00747522
0.0075272
0.00759289
0.00766089
0.00771127
0.00770988
0.00762988
0.00747932
0.00745237
0.008913
0.00535599
0.0701344
0.0917157
0.0478705
0.0297019
0.0207574
0.0157246
0.0127074
0.0108659
0.0097792
0.00919502
0.00896897
0.00897908
0.00912545
0.00933562
0.00956134
0.00976871
0.00992969
0.0100254
0.0100535
0.0100266
0.00996386
0.00988303
0.00979698
0.00971258
0.00963104
0.00954824
0.00945865
0.00935157
0.009221
0.00906115
0.00888152
0.00867501
0.00843338
0.00816124
0.00785698
0.00754543
0.0101005
0.00482863
0.00547713
0.0107939
0.0363158
0.0300472
0.0217834
0.0159016
0.012012
0.00941476
0.00762715
0.00636502
0.00546493
0.00483486
0.00440275
0.0041266
0.00397078
0.00390236
0.00389286
0.00391839
0.00395889
0.003998
0.00402415
0.00403178
0.00402079
0.00399461
0.0039582
0.00391657
0.00387412
0.00383456
0.00379835
0.00376697
0.00373797
0.00370612
0.00365808
0.00359393
0.00351309
0.0034057
0.00326021
0.00307207
0.00312437
0.00251809
)
;

boundaryField
{
    floor
    {
        type            kqRWallFunction;
        value           nonuniform List<scalar> 
36
(
0.0013498
0.000201438
0.000229704
0.000156868
9.8711e-05
7.73952e-05
6.94969e-05
7.16467e-05
8.41644e-05
0.000108131
0.000144527
0.000194957
0.000261878
0.000350393
0.000466919
0.000593941
0.000620788
0.000528731
0.000356441
0.000356441
0.000427808
0.00112284
0.00210903
0.00305921
0.00228275
0.00173689
0.0013498
0.00163353
0.00139069
0.00075136
0.000201438
0.00075136
0.000306303
0.00156363
0.000683604
0.00169486
)
;
    }
    ceiling
    {
        type            kqRWallFunction;
        value           nonuniform List<scalar> 
43
(
0.00547713
0.0107939
0.0363158
0.0300472
0.0217834
0.0159016
0.012012
0.00941476
0.00762715
0.00636502
0.00546493
0.00483486
0.00440275
0.0041266
0.00397078
0.00390236
0.00389286
0.00391839
0.00395889
0.003998
0.00402415
0.00403178
0.00402079
0.00399461
0.0039582
0.00391657
0.00387412
0.00383456
0.00379835
0.00376697
0.00373797
0.00370612
0.00365808
0.00359393
0.00351309
0.0034057
0.00326021
0.00307207
0.00312437
0.00251809
0.020479
0.0274308
0.0701344
)
;
    }
    sWall
    {
        type            kqRWallFunction;
        value           uniform 0.00547713;
    }
    nWall
    {
        type            kqRWallFunction;
        value           nonuniform List<scalar> 6(0.00173689 0.00181199 0.00188009 0.00535599 0.00482863 0.00251809);
    }
    sideWalls
    {
        type            empty;
    }
    glass1
    {
        type            kqRWallFunction;
        value           nonuniform List<scalar> 9(0.00100328 0.00325978 0.00624868 0.00984036 0.0137784 0.0179706 0.0220117 0.0223896 0.020479);
    }
    glass2
    {
        type            kqRWallFunction;
        value           nonuniform List<scalar> 2(0.0046499 0.00562894);
    }
    sun
    {
        type            kqRWallFunction;
        value           nonuniform List<scalar> 
14
(
0.00100328
0.00104172
0.000737402
0.000768658
0.000822826
0.000880242
0.000939325
0.00100066
0.00106643
0.00113709
0.00120159
0.00125634
0.00129967
0.001333
)
;
    }
    Table_master
    {
        type            kqRWallFunction;
        value           nonuniform List<scalar> 9(7.75872e-05 7.52209e-05 9.25407e-05 0.000132695 0.000206234 0.000322216 0.000490006 0.000731714 0.00110244);
    }
    Table_slave
    {
        type            kqRWallFunction;
        value           nonuniform List<scalar> 9(0.0012104 0.00123001 0.00124196 0.00125099 0.00126578 0.00129833 0.00136769 0.00150771 0.00179105);
    }
    inlet
    {
        type            turbulentIntensityKineticEnergyInlet;
        intensity       0.05;
        value           uniform 0.13826;
    }
    outlet
    {
        type            zeroGradient;
    }
}


// ************************************************************************* //
