/*--------------------------------*- C++ -*----------------------------------*\
  =========                 |
  \\      /  F ield         | OpenFOAM: The Open Source CFD Toolbox
   \\    /   O peration     | Website:  https://openfoam.org
    \\  /    A nd           | Version:  6
     \\/     M anipulation  |
\*---------------------------------------------------------------------------*/
FoamFile
{
    version     2.0;
    format      ascii;
    class       volScalarField;
    location    "100";
    object      nut;
}
// * * * * * * * * * * * * * * * * * * * * * * * * * * * * * * * * * * * * * //

dimensions      [0 2 -1 0 0 0 0];

internalField   nonuniform List<scalar> 
458
(
0.000711293
0.000724789
0.000609795
0.000622585
0.00064415
0.000666247
0.000688245
0.000710361
0.000733336
0.000757244
0.000778427
0.000795965
0.00080958
0.000819898
0.000825052
0.000318597
0.000340209
0.000281065
0.000222973
0.000197466
0.000187163
0.000190082
0.000206047
0.000233548
0.000269982
0.000313531
0.000363335
0.000420236
0.000485074
0.000547069
0.000559311
0.000516169
0.000423838
0.00128214
0.00248218
0.00160683
0.00237629
0.0026314
0.00280625
0.00298188
0.00314601
0.003276
0.00336166
0.00338963
0.00332275
0.00309809
0.00260992
0.00176659
0.00090763
0.000837461
0.000615539
0.000392926
0.00119849
0.000731347
0.000473938
0.000340482
0.000314471
0.000310105
0.000324388
0.000373528
0.000472456
0.00062461
0.000824548
0.0010596
0.001326
0.0018551
0.0017241
0.00126881
0.000464395
0.00177516
0.00431762
0.0018418
0.00307744
0.00401768
0.00433659
0.00456374
0.00476248
0.00492442
0.00503459
0.00509782
0.0050812
0.00493315
0.00457524
0.00393527
0.00304454
0.00196913
0.000888025
0.000587028
0.00140025
0.000931186
0.000573603
0.000344495
0.000197779
0.000194811
0.00021617
0.000258916
0.000322763
0.000403333
0.000497231
0.000607458
0.000745509
0.00228972
0.00216271
0.00155059
0.000752607
0.00222767
0.00647879
0.0025399
0.00295417
0.00454207
0.00508677
0.00536931
0.00560465
0.00581271
0.00598644
0.00613997
0.00625535
0.00628452
0.00614599
0.00572312
0.00489146
0.00357363
0.00198475
0.000924561
0.00185601
0.00192373
0.00156949
0.00127134
0.00101308
0.000781202
0.000787476
0.000791267
0.000794121
0.000798789
0.000808999
0.000830347
0.000871849
0.000950278
0.00293325
0.0030106
0.00257269
0.00103126
0.002636
0.00867663
0.00390494
0.00289519
0.00432849
0.00510366
0.00548717
0.00577989
0.00603975
0.00628682
0.00657138
0.00688872
0.00720197
0.00745448
0.00757205
0.00748488
0.00714845
0.00655738
0.00578496
0.00509445
0.00475425
0.00462711
0.0046149
0.00459647
0.00448159
0.00439478
0.00427936
0.00413487
0.00397193
0.00381239
0.00368855
0.00363191
0.00365533
0.00376568
0.00365188
0.00344144
0.00297656
0.00124201
0.00107286
0.000935821
0.00301042
0.0105765
0.00617515
0.0037898
0.00381783
0.00442353
0.0049387
0.00533087
0.00561957
0.00590544
0.00629678
0.00678616
0.0073401
0.00790177
0.0083985
0.00876054
0.00892896
0.00884934
0.00851257
0.00802113
0.00754642
0.0072639
0.00711662
0.00698821
0.00684128
0.00666854
0.00645352
0.00618573
0.00586007
0.00548493
0.00509212
0.00473197
0.00443837
0.00419527
0.00395614
0.00368293
0.00329828
0.00277811
0.00193664
0.000955872
0.00333175
0.0117891
0.00907843
0.00617661
0.00452297
0.00412206
0.00438843
0.00476698
0.0049828
0.00522172
0.00556857
0.00606361
0.00670922
0.00745495
0.00820989
0.00887743
0.00937213
0.00961911
0.00958531
0.00933604
0.00900917
0.008726
0.00851373
0.00834557
0.0081935
0.00803641
0.00785685
0.0076359
0.00734909
0.00696977
0.0064856
0.00592514
0.00535939
0.00484421
0.00438013
0.00391925
0.00339488
0.00279509
0.00212314
0.000973667
0.00336022
0.0109087
0.00958275
0.0085078
0.00684365
0.00562679
0.00508431
0.00495033
0.00490593
0.0049095
0.00501699
0.00527501
0.00572494
0.00637771
0.00717917
0.00801462
0.0087517
0.00927915
0.00951508
0.00950749
0.00935593
0.00916406
0.00898997
0.00884807
0.00873406
0.00863925
0.00855525
0.00847065
0.00836516
0.00820426
0.00793947
0.00752438
0.0069539
0.0062683
0.00555573
0.00486504
0.00416631
0.00354482
0.00307456
0.00153124
0.00321364
0.0037193
0.00754958
0.00817356
0.00744504
0.00653033
0.00579889
0.00530087
0.0049737
0.00478712
0.00473805
0.0048193
0.00504132
0.00542598
0.0059825
0.0066726
0.00739788
0.00803099
0.00846976
0.00869312
0.00874608
0.00870117
0.00861867
0.00853418
0.00846522
0.00842016
0.00840389
0.00841844
0.00846018
0.00851506
0.00855375
0.00852966
0.00841041
0.00820755
0.00793985
0.00757666
0.0070612
0.00617865
0.00595987
0.0016848
0.016089
0.0155332
0.00940291
0.00747499
0.00645936
0.00580649
0.00537247
0.00509634
0.00494233
0.00489805
0.00495512
0.00510685
0.00535087
0.00568542
0.00609514
0.00653713
0.00694645
0.00726672
0.00747511
0.00758397
0.00762291
0.00762226
0.00760641
0.00759338
0.00759679
0.00762717
0.00769169
0.00779118
0.00791501
0.00803101
0.00811147
0.00810841
0.00793529
0.00755441
0.00695369
0.00611508
0.00514618
0.00164348
0.00594737
0.0127773
0.00925566
0.00738476
0.00631554
0.00564564
0.00522535
0.00498362
0.0048813
0.00488633
0.00498025
0.00513375
0.0053206
0.00552378
0.00573355
0.00594166
0.00613602
0.00630248
0.00643138
0.00652139
0.00657804
0.00661015
0.00662662
0.00663491
0.00664039
0.00664607
0.00665538
0.00666683
0.00668013
0.006695
0.00669979
0.00664135
0.00647749
0.006175
0.00571717
0.00506664
0.00471065
0.00156054
0.00166188
0.00233294
0.00427957
0.00389273
0.00331447
0.00283184
0.00246125
0.00217897
0.00196122
0.00179163
0.00166013
0.00156151
0.00149011
0.00144264
0.00141516
0.00140292
0.00140122
0.00140581
0.00141305
0.00142001
0.00142465
0.00142599
0.00142405
0.0014194
0.00141291
0.00140546
0.00139783
0.00139067
0.00138408
0.00137834
0.00137302
0.00136714
0.00135824
0.00134628
0.00133104
0.00131053
0.00128223
0.00124468
0.00125525
0.00112691
)
;

boundaryField
{
    floor
    {
        type            nutkWallFunction;
        Cmu             0.09;
        kappa           0.41;
        E               9.8;
        value           nonuniform List<scalar> 
36
(
9.99166e-05
3.59076e-05
3.88234e-05
3.07953e-05
2.26718e-05
1.90139e-05
1.75137e-05
1.79312e-05
2.02313e-05
2.4144e-05
2.92366e-05
3.52066e-05
4.19039e-05
4.94123e-05
5.7812e-05
6.57126e-05
6.72571e-05
6.17903e-05
4.98841e-05
4.9884e-05
5.51401e-05
9.11366e-05
0.000124414
0.000148876
0.000129289
0.000113162
9.99166e-05
0.0001098
0.000101408
7.42799e-05
3.59075e-05
7.42799e-05
4.58265e-05
0.000107461
7.07308e-05
0.000111807
)
;
    }
    ceiling
    {
        type            nutkWallFunction;
        Cmu             0.09;
        kappa           0.41;
        E               9.8;
        value           nonuniform List<scalar> 
43
(
0.000196415
0.000269718
0.000471623
0.000432366
0.000372973
0.000322609
0.000283342
0.000253021
0.00022935
0.000210718
0.00019614
0.000185125
0.000177102
0.000171744
0.000168632
0.000167243
0.000167048
0.000167567
0.000168387
0.000169174
0.000169698
0.000169849
0.000169628
0.000169102
0.000168366
0.000167521
0.000166654
0.000165842
0.000165094
0.000164442
0.000163837
0.00016317
0.000162159
0.000160796
0.000159061
0.000156721
0.000153485
0.000149179
0.000150389
0.000135574
0.000362461
0.00041454
0.000637076
)
;
    }
    sWall
    {
        type            nutkWallFunction;
        Cmu             0.09;
        kappa           0.41;
        E               9.8;
        value           uniform 0.000196457;
    }
    nWall
    {
        type            nutkWallFunction;
        Cmu             0.09;
        kappa           0.41;
        E               9.8;
        value           nonuniform List<scalar> 6(0.000113165 0.000115537 0.000117641 0.00019426 0.000184989 0.000135582);
    }
    sideWalls
    {
        type            empty;
    }
    glass1
    {
        type            nutkWallFunction;
        Cmu             0.09;
        kappa           0.41;
        E               9.8;
        value           nonuniform List<scalar> 9(8.60763e-05 0.000153617 0.000209103 0.000258533 0.000302216 0.000341648 0.000375086 0.000378044 0.000362865);
    }
    glass2
    {
        type            nutkWallFunction;
        Cmu             0.09;
        kappa           0.41;
        E               9.8;
        value           nonuniform List<scalar> 2(0.000181756 0.000198903);
    }
    sun
    {
        type            nutkWallFunction;
        Cmu             0.09;
        kappa           0.41;
        E               9.8;
        value           nonuniform List<scalar> 
14
(
8.61069e-05
8.77595e-05
7.35631e-05
7.51569e-05
7.78354e-05
8.05689e-05
8.32793e-05
8.59939e-05
8.88033e-05
9.17155e-05
9.42867e-05
9.64092e-05
9.80529e-05
9.92964e-05
)
;
    }
    Table_master
    {
        type            nutkWallFunction;
        Cmu             0.09;
        kappa           0.41;
        E               9.8;
        value           nonuniform List<scalar> 9(1.90642e-05 1.86251e-05 2.16771e-05 2.76816e-05 3.64256e-05 4.71573e-05 5.93336e-05 7.32717e-05 9.03009e-05);
    }
    Table_slave
    {
        type            nutkWallFunction;
        Cmu             0.09;
        kappa           0.41;
        E               9.8;
        value           nonuniform List<scalar> 9(9.46318e-05 9.53951e-05 9.58567e-05 9.62042e-05 9.67698e-05 9.80023e-05 0.000100572 0.000105546 0.000114876);
    }
    inlet
    {
        type            calculated;
        value           uniform 0.016089;
    }
    outlet
    {
        type            calculated;
        value           nonuniform List<scalar> 2(0.00166188 0.00233294);
    }
}


// ************************************************************************* //
