/*--------------------------------*- C++ -*----------------------------------*\
  =========                 |
  \\      /  F ield         | OpenFOAM: The Open Source CFD Toolbox
   \\    /   O peration     | Website:  https://openfoam.org
    \\  /    A nd           | Version:  6
     \\/     M anipulation  |
\*---------------------------------------------------------------------------*/
FoamFile
{
    version     2.0;
    format      ascii;
    class       volScalarField;
    location    "100";
    object      nut;
}
// * * * * * * * * * * * * * * * * * * * * * * * * * * * * * * * * * * * * * //

dimensions      [0 2 -1 0 0 0 0];

internalField   nonuniform List<scalar> 
460
(
0.000381734
0.00039432
0.000343554
0.000353839
0.000369031
0.000384645
0.000400139
0.00041538
0.000430384
0.000445288
0.000460375
0.000476166
0.000493011
0.000508699
0.000522466
0.000533689
0.000543103
0.00055317
0.000177053
0.000174294
0.000206059
0.000227896
0.000247736
0.000266347
0.000285058
0.000304791
0.000326381
0.00035079
0.000379219
0.000413135
0.000453418
0.000494583
0.00050115
0.000341553
0.000666941
0.00138527
0.00103329
0.0014558
0.00160987
0.00172823
0.00185652
0.00199529
0.00214072
0.00228788
0.00242954
0.00255428
0.00265511
0.00272365
0.00272841
0.00261187
0.00226969
0.00154875
0.000679859
0.000670355
0.000476287
0.000313612
0.000366763
0.000464435
0.000516952
0.00061015
0.000708458
0.000809012
0.000913991
0.00102887
0.00115902
0.00131158
0.00150284
0.00176475
0.00214584
0.00213414
0.00095122
0.000926075
0.00232444
0.00115964
0.00207126
0.00273612
0.00300561
0.00321251
0.00341361
0.00361049
0.00379726
0.00396711
0.0041125
0.00422392
0.00430548
0.00432872
0.00425058
0.00400305
0.00351905
0.00288692
0.00251268
0.000750118
0.000357579
0.000553478
0.000598881
0.000634501
0.000709506
0.000789145
0.000875948
0.000963952
0.00105758
0.00116297
0.00128961
0.00146629
0.00174993
0.00265919
0.00241921
0.00116509
0.0011799
0.00350565
0.00145383
0.00203691
0.00336034
0.00389678
0.00417182
0.00439573
0.00460264
0.00479346
0.00496428
0.00511051
0.00522598
0.00531671
0.0053607
0.00531729
0.00511361
0.004641
0.00377164
0.00237555
0.00086076
0.000430061
0.000732072
0.000559886
0.00046049
0.00038284
0.000313663
0.000333249
0.000360359
0.000396657
0.000446941
0.000518924
0.000622886
0.000775141
0.00299764
0.00253988
0.00143011
0.0014257
0.0048459
0.00205664
0.00181403
0.00346644
0.00440576
0.00479018
0.00503663
0.00524748
0.00543922
0.00561244
0.00576583
0.00589738
0.00601431
0.00611128
0.00616082
0.00609958
0.00580997
0.00511102
0.00381859
0.00204751
0.000663341
0.00129518
0.00140326
0.00108309
0.00092383
0.000771171
0.000608394
0.000631651
0.000652039
0.00067498
0.000704345
0.000745143
0.000809865
0.000921355
0.00364889
0.00298276
0.00171566
0.0016563
0.00626758
0.00299605
0.00178039
0.00315004
0.00450794
0.00507791
0.00537707
0.00560608
0.00580744
0.00598775
0.00614946
0.00629849
0.00644501
0.00661421
0.00681223
0.00701622
0.00716237
0.00714683
0.00685685
0.00622461
0.00527396
0.0042825
0.00376674
0.00349003
0.00349927
0.00366157
0.00388156
0.00413086
0.00428213
0.00433872
0.00432691
0.00430168
0.00432307
0.00451443
0.0050353
0.00438151
0.0029443
0.00120534
0.00126686
0.00186841
0.00762547
0.00430325
0.00222364
0.00266252
0.00406728
0.0048739
0.00529974
0.00560293
0.0058555
0.00606942
0.00624571
0.00639196
0.00653047
0.00672025
0.00700621
0.00739603
0.00784372
0.0082452
0.00846268
0.00836675
0.00788933
0.00710487
0.00646542
0.00610468
0.0060262
0.00614162
0.00634128
0.00652758
0.00664321
0.00667303
0.00663891
0.0065692
0.00649095
0.00645633
0.0064868
0.00631147
0.00593675
0.00485724
0.00187876
0.00208956
0.00872426
0.00591537
0.00337123
0.00252731
0.00303252
0.00384978
0.00448254
0.00496627
0.00536169
0.00568469
0.00593375
0.00611097
0.00623095
0.00640735
0.0067169
0.00719731
0.00781441
0.00846499
0.00900321
0.00928132
0.00921034
0.00883874
0.00835588
0.00797247
0.00776631
0.00772778
0.00779048
0.00787355
0.00791622
0.00789935
0.00782807
0.00770859
0.00755741
0.00741974
0.00735182
0.00729964
0.00724183
0.0069381
0.00215955
0.00222494
0.00897912
0.00673648
0.00506012
0.00375791
0.00301421
0.00302277
0.00345611
0.00393733
0.00437748
0.00477793
0.00512786
0.00543597
0.00569996
0.0059579
0.00631534
0.00682826
0.00746985
0.00816782
0.00882508
0.00932609
0.009574
0.009558
0.00936656
0.00912496
0.00892459
0.00880931
0.00876278
0.00874232
0.00871344
0.00865583
0.00855778
0.00841427
0.00823083
0.0080331
0.00786413
0.00775717
0.00776769
0.00789114
0.00244582
0.00266173
0.00442737
0.00412658
0.00401609
0.00371163
0.00333726
0.00303667
0.00286068
0.00281982
0.00292327
0.00319036
0.00363991
0.00424939
0.00491191
0.00556083
0.0062166
0.00690169
0.00758692
0.00822596
0.00879217
0.0092697
0.00963273
0.00985485
0.00993673
0.00992624
0.00987649
0.00982088
0.00976672
0.00971267
0.00964985
0.00956708
0.00945332
0.00929952
0.00910101
0.00886175
0.00859742
0.00833137
0.00811097
0.00805318
0.00254563
0.00175868
0.00248128
0.00269009
0.00273854
0.00276747
0.00283613
0.00297553
0.00320909
0.00356288
0.00407689
0.00481212
0.0057907
0.00693076
0.00804992
0.00896718
0.00959449
0.00995798
0.0101436
0.0102351
0.0102866
0.0103245
0.0103542
0.0103756
0.0103905
0.0104007
0.0104019
0.0103872
0.0103498
0.0102834
0.0101831
0.0100451
0.0098648
0.00963339
0.00933208
0.00891302
0.00786661
0.00251745
0.00166234
0.00198909
0.0020154
0.00249561
0.00251523
0.00242144
0.00231247
0.0022122
0.00212679
0.00205751
0.0020044
0.00196771
0.00194868
0.00195313
0.00198907
0.0020632
0.00217219
0.00229314
0.00240024
0.00247814
0.00252444
0.00254494
0.00254813
0.00254189
0.00253192
0.0025218
0.00251347
0.00250772
0.00250443
0.00250284
0.00250187
0.00250041
0.00249757
0.00249277
0.00248552
0.00247477
0.00245801
0.00242947
0.0023254
0.00200071
)
;

boundaryField
{
    floor
    {
        type            nutkWallFunction;
        Cmu             0.09;
        kappa           0.41;
        E               9.8;
        value           nonuniform List<scalar> 
36
(
6.64478e-05
1.60366e-05
1.56211e-05
2.0229e-05
2.33411e-05
2.61342e-05
2.87272e-05
3.131e-05
3.40097e-05
3.69371e-05
4.02164e-05
4.39987e-05
4.8464e-05
5.37075e-05
5.9006e-05
5.98462e-05
3.89786e-05
3.89853e-05
0.00011498
0.000140002
0.000170306
0.000202268
0.000144649
0.000128511
6.6449e-05
8.22424e-05
8.10714e-05
5.6653e-05
1.60432e-05
5.66547e-05
3.52092e-05
9.08485e-05
4.11183e-05
0.000104203
5.06661e-05
8.02006e-05
)
;
    }
    ceiling
    {
        type            nutkWallFunction;
        Cmu             0.09;
        kappa           0.41;
        E               9.8;
        value           nonuniform List<scalar> 
47
(
0.000256777
0.000232397
0.000235257
0.000286988
0.000289075
0.000279066
0.000267388
0.000256591
0.000247354
0.000239831
0.000234047
0.000230042
0.000227961
0.000228449
0.000232375
0.000240451
0.000252268
0.000265307
0.000276792
0.00028511
0.00029004
0.000292218
0.000292555
0.000291889
0.000290827
0.000289748
0.000288858
0.000288244
0.000287891
0.000287721
0.000287616
0.00028746
0.000287156
0.000286642
0.000285868
0.00028472
0.000282927
0.000279873
0.000268717
0.000233305
0.000409728
0.000486403
0.000456043
0.000256776
0.000232396
0.000207081
0.000235257
)
;
    }
    sWall
    {
        type            nutkWallFunction;
        Cmu             0.09;
        kappa           0.41;
        E               9.8;
        value           uniform 0.000133611;
    }
    nWall
    {
        type            nutkWallFunction;
        Cmu             0.09;
        kappa           0.41;
        E               9.8;
        value           nonuniform List<scalar> 5(0.000184955 0.000220255 0.000250843 0.000289248 0.000233889);
    }
    sideWalls
    {
        type            empty;
    }
    glass1
    {
        type            nutkWallFunction;
        Cmu             0.09;
        kappa           0.41;
        E               9.8;
        value           nonuniform List<scalar> 10(4.42677e-05 8.06214e-05 0.000112031 0.0001418 0.000169935 0.000195838 0.000219319 0.000243494 0.00025816 0.000243296);
    }
    glass2
    {
        type            nutkWallFunction;
        Cmu             0.09;
        kappa           0.41;
        E               9.8;
        value           nonuniform List<scalar> 2(0.000281564 0.000292198);
    }
    sun
    {
        type            nutkWallFunction;
        Cmu             0.09;
        kappa           0.41;
        E               9.8;
        value           nonuniform List<scalar> 
17
(
4.42561e-05
4.59859e-05
3.92393e-05
4.06152e-05
4.26386e-05
4.47074e-05
4.67497e-05
4.8749e-05
5.07081e-05
5.26458e-05
5.45989e-05
5.66347e-05
5.87971e-05
6.08028e-05
6.25566e-05
6.39821e-05
6.5175e-05
)
;
    }
    Table_master
    {
        type            nutkWallFunction;
        Cmu             0.09;
        kappa           0.41;
        E               9.8;
        value           nonuniform List<scalar> 8(3.5197e-05 3.78452e-05 4.14772e-05 4.62852e-05 5.28548e-05 6.21023e-05 7.51874e-05 9.3889e-05);
    }
    Table_slave
    {
        type            nutkWallFunction;
        Cmu             0.09;
        kappa           0.41;
        E               9.8;
        value           nonuniform List<scalar> 8(7.33761e-05 7.6273e-05 7.88019e-05 8.16364e-05 8.52495e-05 9.02397e-05 9.80895e-05 0.000111441);
    }
    inlet
    {
        type            calculated;
        value           nonuniform 0();
    }
    outlet
    {
        type            calculated;
        value           nonuniform 0();
    }
}


// ************************************************************************* //
