/*--------------------------------*- C++ -*----------------------------------*\
  =========                 |
  \\      /  F ield         | OpenFOAM: The Open Source CFD Toolbox
   \\    /   O peration     | Website:  https://openfoam.org
    \\  /    A nd           | Version:  6
     \\/     M anipulation  |
\*---------------------------------------------------------------------------*/
FoamFile
{
    version     2.0;
    format      ascii;
    class       volScalarField;
    location    "100";
    object      nut;
}
// * * * * * * * * * * * * * * * * * * * * * * * * * * * * * * * * * * * * * //

dimensions      [0 2 -1 0 0 0 0];

internalField   nonuniform List<scalar> 
459
(
0.000777723
0.000826805
0.000791184
0.000789423
0.000790411
0.000790884
0.0007853
0.000780457
0.000779418
0.000781662
0.000785142
0.000786891
0.000782314
0.000763176
0.00071442
0.000295225
0.000325649
0.000355405
0.00037394
0.000388549
0.000401315
0.000413491
0.000425861
0.000439279
0.000454976
0.000473897
0.000496717
0.00052473
0.000563293
0.000613382
0.000660278
0.000652618
0.000632782
0.000557327
0.0011968
0.00308067
0.00307518
0.00335333
0.00355478
0.00373189
0.00390866
0.00390898
0.00382574
0.00373563
0.00363709
0.00349129
0.00323684
0.00278749
0.00202582
0.000772006
0.000544685
0.000361896
0.00061151
0.000632938
0.000682016
0.000735316
0.000770399
0.000785813
0.000783785
0.000804978
0.000853545
0.000936419
0.00106182
0.00123679
0.00144712
0.00172165
0.0022331
0.00226999
0.00236931
0.000771871
0.00144358
0.00486012
0.00480835
0.00503136
0.00473926
0.00462421
0.00516584
0.00551606
0.00547554
0.00529299
0.00507193
0.00479387
0.00439491
0.0037915
0.00291144
0.00180133
0.0007894
0.000497635
0.0010826
0.000913518
0.000822259
0.000744513
0.000612654
0.000375713
0.000397549
0.00043457
0.000481356
0.000536729
0.0006006
0.000675585
0.000769289
0.00089815
0.00267833
0.00272986
0.00272714
0.000919185
0.00166999
0.00292156
0.00340395
0.00416173
0.00494416
0.00529157
0.00552469
0.00624424
0.00649303
0.00639355
0.00620789
0.00597743
0.00565117
0.00514268
0.00434868
0.0031915
0.00180055
0.000814129
0.00174721
0.00213766
0.00197515
0.00181058
0.00157168
0.00121968
0.000859625
0.000865908
0.000872311
0.000878611
0.000886572
0.000898723
0.000919326
0.000956767
0.00102854
0.003196
0.0030226
0.00234948
0.00102672
0.002913
0.00268778
0.00275457
0.00327318
0.00426726
0.00512241
0.00560384
0.00639467
0.00706111
0.00718399
0.0071521
0.00711016
0.00705656
0.00695646
0.00677202
0.0064714
0.006042
0.00551523
0.00507618
0.00495651
0.00501616
0.0051621
0.00521086
0.0051754
0.00508816
0.00505161
0.00499595
0.00491852
0.00482168
0.00470997
0.00459154
0.00448095
0.00439734
0.00436484
0.00374354
0.00289828
0.00205399
0.00129767
0.00133632
0.00132132
0.00351646
0.00335939
0.00291009
0.00296996
0.00379282
0.0048166
0.0053291
0.0061599
0.00709804
0.0074526
0.00756173
0.007672
0.00781305
0.00795951
0.00807335
0.00810808
0.00801347
0.00777092
0.00747161
0.00725764
0.00719134
0.0072072
0.00724127
0.0072564
0.00723419
0.00717567
0.00708299
0.00696025
0.00681074
0.00663724
0.00644188
0.00622591
0.00598715
0.00570659
0.0053288
0.00492548
0.00460865
0.00447022
0.00442875
0.00167654
0.0041146
0.00424397
0.00339433
0.0029148
0.00353289
0.00464537
0.00520479
0.00569778
0.00660054
0.00709808
0.00727246
0.00747769
0.00776091
0.00809129
0.0084241
0.00869978
0.00884573
0.00881785
0.00866281
0.00849035
0.00837565
0.00831289
0.00827818
0.00824399
0.00818723
0.00809736
0.00797443
0.0078207
0.00763878
0.00743178
0.00720374
0.00696118
0.00671534
0.00648028
0.00626223
0.00606
0.005871
0.00587872
0.00644062
0.0019997
0.0048092
0.00552461
0.00505392
0.00310942
0.00358487
0.00482632
0.00528513
0.00538522
0.00572221
0.00609774
0.00625535
0.00650885
0.00689759
0.00737899
0.00790341
0.00840762
0.00879984
0.0090156
0.00906494
0.00901664
0.0089377
0.00885604
0.00877867
0.00869864
0.00860374
0.00848533
0.00834052
0.00816868
0.00797027
0.00774694
0.00750231
0.00724335
0.00698217
0.00673618
0.00652744
0.00638892
0.00632625
0.00634014
0.00738886
0.00235171
0.00580279
0.00744907
0.0127839
0.00436864
0.00349676
0.00506321
0.00535864
0.00507472
0.00497435
0.00505368
0.00517571
0.00545246
0.00586274
0.00637592
0.00696087
0.00756847
0.00812308
0.00855255
0.00882719
0.00896656
0.00901043
0.0089924
0.00893592
0.00885336
0.00874896
0.00862357
0.00847735
0.00831005
0.00812131
0.00791128
0.00768145
0.00743571
0.0071811
0.00692774
0.00669164
0.00650772
0.00644047
0.00655891
0.00734106
0.00236973
0.0220359
0.0122761
0.00379111
0.00473707
0.00491753
0.00479787
0.0048201
0.00490045
0.00507105
0.00536054
0.00575544
0.00623235
0.00676228
0.00730998
0.00783315
0.00828749
0.00863947
0.00887807
0.0090132
0.00906479
0.00905468
0.00900136
0.00891791
0.00881238
0.00868924
0.00855055
0.0083968
0.00822781
0.0080435
0.00784462
0.0076335
0.00741456
0.00719543
0.00698966
0.00681738
0.0066831
0.00625628
0.00173028
0.00855606
0.0114884
0.00735701
0.0054913
0.00471787
0.00441255
0.00435694
0.00448049
0.00476591
0.00520364
0.00577121
0.00642304
0.00709481
0.00772024
0.00824885
0.00865487
0.00893623
0.0091077
0.00919234
0.00921447
0.00919528
0.00915086
0.00909191
0.00902447
0.00895105
0.0088718
0.00878554
0.00869061
0.00858562
0.00846999
0.00834417
0.0082096
0.00806842
0.00792358
0.00777181
0.00756602
0.00671358
0.00194123
0.00136599
0.00170174
0.00488497
0.00448588
0.00396949
0.00349593
0.00312005
0.00282358
0.00258538
0.00239305
0.0022402
0.00212412
0.00204411
0.00199928
0.00198605
0.00199694
0.00202178
0.00205062
0.00207602
0.00209399
0.0021034
0.00210503
0.00210055
0.00209183
0.00208056
0.00206803
0.0020551
0.00204226
0.00202969
0.00201737
0.00200522
0.0019932
0.00198135
0.00196993
0.00195932
0.0019503
0.0019449
0.00194537
0.00188054
0.00165208
)
;

boundaryField
{
    floor
    {
        type            nutkWallFunction;
        Cmu             0.09;
        kappa           0.41;
        E               9.8;
        value           nonuniform List<scalar> 
29
(
8.64697e-05
3.26524e-05
3.68004e-05
4.08052e-05
4.32782e-05
4.52162e-05
4.69019e-05
4.85031e-05
5.01235e-05
5.18745e-05
5.39141e-05
5.63613e-05
5.92976e-05
6.28805e-05
6.77694e-05
7.40635e-05
7.9898e-05
7.8939e-05
7.64319e-05
6.69275e-05
6.69275e-05
9.34836e-05
0.000111196
0.000123989
8.64696e-05
3.26523e-05
4.16274e-05
5.92951e-05
9.85089e-05
)
;
    }
    ceiling
    {
        type            nutkWallFunction;
        Cmu             0.09;
        kappa           0.41;
        E               9.8;
        value           nonuniform List<scalar> 
43
(
0.000163173
0.000200934
0.000533035
0.000493047
0.000440767
0.000392226
0.000353231
0.000322138
0.000296913
0.000276369
0.000259919
0.000247346
0.000238637
0.000233739
0.000232288
0.000233474
0.000236183
0.000239324
0.000242086
0.000244036
0.000245055
0.000245228
0.000244736
0.000243784
0.000242555
0.000241187
0.000239776
0.000238372
0.000236997
0.00023565
0.00023432
0.000233003
0.000231704
0.00023045
0.000229285
0.000228293
0.000227696
0.000227739
0.000220613
0.00019532
0.000623888
0.000783414
0.000889156
)
;
    }
    sWall
    {
        type            nutkWallFunction;
        Cmu             0.09;
        kappa           0.41;
        E               9.8;
        value           uniform 0.000163204;
    }
    nWall
    {
        type            nutkWallFunction;
        Cmu             0.09;
        kappa           0.41;
        E               9.8;
        value           nonuniform List<scalar> 6(0.000158048 0.000198082 0.000233689 0.000203995 0.000227296 0.000195328);
    }
    sideWalls
    {
        type            empty;
    }
    glass1
    {
        type            nutkWallFunction;
        Cmu             0.09;
        kappa           0.41;
        E               9.8;
        value           nonuniform List<scalar> 9(9.4197e-05 0.000143812 0.000172054 0.00019748 0.000331749 0.000394575 0.000455756 0.0005257 0.000624068);
    }
    glass2
    {
        type            nutkWallFunction;
        Cmu             0.09;
        kappa           0.41;
        E               9.8;
        value           nonuniform List<scalar> 2(0.000271718 0.00027364);
    }
    sun
    {
        type            nutkWallFunction;
        Cmu             0.09;
        kappa           0.41;
        E               9.8;
        value           nonuniform List<scalar> 
14
(
9.42024e-05
0.000100138
9.58356e-05
9.56226e-05
9.57426e-05
9.57995e-05
9.51228e-05
9.45356e-05
9.44099e-05
9.46825e-05
9.51044e-05
9.53161e-05
9.476e-05
9.24324e-05
)
;
    }
    heatsource1
    {
        type            nutkWallFunction;
        Cmu             0.09;
        kappa           0.41;
        E               9.8;
        value           nonuniform List<scalar> 3(0.00015541 0.000159804 0.000158054);
    }
    heatsource2
    {
        type            nutkWallFunction;
        Cmu             0.09;
        kappa           0.41;
        E               9.8;
        value           nonuniform List<scalar> 4(9.34765e-05 6.53379e-05 6.53378e-05 9.5555e-05);
    }
    Table_master
    {
        type            nutkWallFunction;
        Cmu             0.09;
        kappa           0.41;
        E               9.8;
        value           nonuniform List<scalar> 9(4.34934e-05 4.63823e-05 5.12303e-05 5.72854e-05 6.43617e-05 7.24171e-05 8.17459e-05 9.32324e-05 0.000108759);
    }
    Table_slave
    {
        type            nutkWallFunction;
        Cmu             0.09;
        kappa           0.41;
        E               9.8;
        value           nonuniform List<scalar> 9(0.000104068 0.000104833 0.000105609 0.000106372 0.000107332 0.000108791 0.000111255 0.000115711 0.000124188);
    }
    inlet
    {
        type            calculated;
        value           uniform 0.0220359;
    }
    outlet
    {
        type            calculated;
        value           nonuniform List<scalar> 2(0.00136599 0.00170174);
    }
}


// ************************************************************************* //
