/*--------------------------------*- C++ -*----------------------------------*\
  =========                 |
  \\      /  F ield         | OpenFOAM: The Open Source CFD Toolbox
   \\    /   O peration     | Website:  https://openfoam.org
    \\  /    A nd           | Version:  6
     \\/     M anipulation  |
\*---------------------------------------------------------------------------*/
FoamFile
{
    version     2.0;
    format      ascii;
    class       volScalarField;
    location    "100";
    object      nut;
}
// * * * * * * * * * * * * * * * * * * * * * * * * * * * * * * * * * * * * * //

dimensions      [0 2 -1 0 0 0 0];

internalField   nonuniform List<scalar> 
459
(
0.000779732
0.000793691
0.000641243
0.000650016
0.000673608
0.000698392
0.000723475
0.000749116
0.00077631
0.000802065
0.000823303
0.000838079
0.000844642
0.000841517
0.000823008
0.00043537
0.000478141
0.000483847
0.000386043
0.000281513
0.000240847
0.000226442
0.000218375
0.000209185
0.000202747
0.000202147
0.000206319
0.000215108
0.000247443
0.000348054
0.000480008
0.000540967
0.000519668
0.000464804
0.00141457
0.00268286
0.00160087
0.00244271
0.00270485
0.00288188
0.00306647
0.00324228
0.00338229
0.00348395
0.00352649
0.00347216
0.00326028
0.00279297
0.00196644
0.000887333
0.000635127
0.000512538
0.00122805
0.00132211
0.00113093
0.000826882
0.000529144
0.000437376
0.000365725
0.00036135
0.000361961
0.000366865
0.000408436
0.000557421
0.000858692
0.00121575
0.00173177
0.00169215
0.00163267
0.000571642
0.0019609
0.00471382
0.001843
0.00307762
0.0040163
0.00429038
0.00447961
0.00464001
0.00475911
0.00483397
0.0048346
0.00471313
0.00439981
0.00381005
0.00291015
0.00186071
0.000944826
0.000888084
0.00219461
0.00188876
0.00154664
0.00123154
0.000911134
0.000282437
0.000215491
0.000241533
0.000295716
0.0003663
0.000443969
0.000528861
0.000630966
0.000769512
0.00205292
0.00182002
0.0013957
0.00074142
0.00245094
0.00701451
0.00253348
0.0029478
0.00457516
0.00504116
0.00526478
0.00544992
0.00560525
0.0057284
0.00581064
0.00580082
0.00561266
0.0051269
0.00423674
0.00299624
0.00178349
0.00111639
0.00239936
0.00257319
0.0023443
0.0020038
0.0016812
0.00127516
0.000896658
0.000902081
0.000908458
0.000913621
0.000917984
0.000923449
0.000933514
0.000954137
0.0010083
0.00310044
0.00356431
0.00349829
0.00117639
0.00288488
0.00928214
0.00377646
0.00279613
0.00448165
0.00519481
0.00550422
0.00574852
0.00597588
0.0061954
0.00646219
0.00674633
0.0069904
0.00712126
0.00706239
0.00676577
0.00626687
0.00568771
0.00527686
0.00500995
0.00490061
0.00485548
0.00474081
0.00461447
0.00449472
0.00444522
0.00438196
0.00429742
0.00419955
0.00411251
0.00406976
0.00409732
0.0042022
0.00437771
0.00445114
0.00438988
0.00376616
0.00158524
0.00139378
0.00121097
0.00327845
0.0111762
0.00583687
0.00334482
0.00383318
0.00460674
0.00509443
0.00543433
0.00569442
0.00596965
0.00637048
0.00687236
0.00742054
0.0079434
0.00835856
0.0085838
0.00856536
0.00831673
0.00793179
0.00751975
0.00717538
0.0069251
0.00674004
0.00658514
0.00642573
0.00624686
0.00603276
0.00577412
0.00547671
0.00517458
0.00492319
0.00476386
0.00469144
0.00465643
0.00461093
0.00448548
0.00408462
0.00335275
0.00245609
0.00125623
0.00362019
0.0124019
0.00878966
0.00545313
0.00393022
0.00387151
0.00435959
0.00480672
0.0050353
0.00528298
0.00567422
0.00622515
0.00690704
0.00764883
0.00834771
0.0088814
0.00916844
0.00919519
0.00901836
0.0087392
0.00845274
0.00821001
0.00801468
0.00784502
0.00767131
0.00747409
0.00723629
0.00693411
0.00654803
0.00608889
0.00561422
0.00519344
0.00486717
0.00461713
0.00437975
0.00406626
0.00359019
0.00296869
0.00232726
0.00123889
0.00365228
0.0116244
0.00989879
0.00835225
0.00636965
0.00507819
0.0046665
0.00472905
0.00477157
0.00480741
0.00495879
0.00527661
0.0057937
0.00650284
0.00733109
0.00807658
0.00861408
0.008911
0.00899192
0.0089308
0.00881171
0.00869201
0.00859242
0.00850976
0.00843158
0.00834803
0.00824695
0.00810298
0.00787967
0.00755234
0.0071465
0.00666604
0.00613592
0.00558558
0.00503197
0.00448136
0.00396599
0.00342896
0.00297845
0.00163089
0.00349779
0.00406018
0.00755655
0.00803805
0.00720878
0.00621775
0.00546232
0.00498189
0.00468273
0.00452147
0.00448408
0.00455992
0.00476812
0.00514879
0.00571963
0.00640525
0.00706714
0.00759049
0.00793146
0.00811492
0.00819966
0.00824164
0.00827623
0.0083203
0.00838175
0.00846772
0.00858164
0.0087116
0.00882156
0.00886044
0.00873198
0.00847075
0.00816367
0.00794473
0.00792107
0.00792137
0.00710123
0.00573742
0.0056405
0.00177379
0.0153592
0.0151028
0.00904893
0.00715275
0.00613376
0.00547459
0.00502404
0.00470649
0.0044767
0.00431822
0.00423404
0.00424379
0.0043808
0.00466933
0.00508953
0.0055674
0.00601378
0.00637455
0.00664323
0.00684156
0.00699807
0.00713854
0.007286
0.00746345
0.00769204
0.00798335
0.00832569
0.00865654
0.0088513
0.00887771
0.00875741
0.00857082
0.00839836
0.00820008
0.00764446
0.00654814
0.00577091
0.00171328
0.00629525
0.0128825
0.00887186
0.00708841
0.00606753
0.00536074
0.00483592
0.00442804
0.00409538
0.00381197
0.00357967
0.00340278
0.00328969
0.00325372
0.00330854
0.00345754
0.00368391
0.00395296
0.00422637
0.00447651
0.00469234
0.00487812
0.00504937
0.0052297
0.0054484
0.00573701
0.00611938
0.00658583
0.007016
0.00733325
0.00749075
0.00748416
0.00733634
0.00703134
0.00634854
0.00536005
0.0046671
0.0015126
0.00295865
0.00370644
0.004843
0.00441723
0.00353636
0.00295361
0.00255131
0.00225263
0.00201895
0.00182959
0.0016732
0.0015428
0.00143209
0.00133713
0.00125548
0.00118562
0.00112671
0.00107829
0.00104001
0.00101132
0.0009913
0.000978723
0.000972306
0.000970972
0.000974081
0.000981624
0.000994386
0.00101404
0.00104284
0.00108261
0.00114114
0.00121378
0.00128772
0.0013465
0.00137698
0.00137215
0.00134934
0.00131257
0.00129419
0.00121004
)
;

boundaryField
{
    floor
    {
        type            nutkWallFunction;
        Cmu             0.09;
        kappa           0.41;
        E               9.8;
        value           nonuniform List<scalar> 
29
(
9.96625e-05
5.14284e-05
5.69592e-05
5.76937e-05
4.4985e-05
3.09135e-05
2.5257e-05
2.32215e-05
2.20778e-05
2.07632e-05
1.98354e-05
1.97432e-05
2.03381e-05
2.15905e-05
2.61531e-05
3.98947e-05
5.71664e-05
6.49432e-05
6.22498e-05
5.5232e-05
5.5232e-05
6.88185e-05
8.97942e-05
0.000141247
9.96625e-05
5.14283e-05
6.13561e-05
0.000107472
0.000134296
)
;
    }
    ceiling
    {
        type            nutkWallFunction;
        Cmu             0.09;
        kappa           0.41;
        E               9.8;
        value           nonuniform List<scalar> 
43
(
0.000335804
0.000413134
0.000527777
0.000485093
0.000395582
0.00033516
0.000292747
0.000260812
0.000235516
0.000214791
0.000197499
0.000182948
0.000170487
0.000159716
0.000150385
0.000142349
0.00013553
0.000129895
0.000125421
0.000122055
0.0001197
0.000118218
0.000117461
0.000117304
0.000117671
0.000118562
0.000120066
0.000122378
0.000125757
0.000130405
0.000137208
0.000145596
0.000154076
0.000160777
0.000164239
0.000163691
0.000161099
0.000156911
0.00015481
0.000145159
0.000391585
0.000448952
0.000670531
)
;
    }
    sWall
    {
        type            nutkWallFunction;
        Cmu             0.09;
        kappa           0.41;
        E               9.8;
        value           uniform 0.000335872;
    }
    nWall
    {
        type            nutkWallFunction;
        Cmu             0.09;
        kappa           0.41;
        E               9.8;
        value           nonuniform List<scalar> 6(0.000145265 0.000150472 0.000148482 0.000201927 0.000179552 0.000145171);
    }
    sideWalls
    {
        type            empty;
    }
    glass1
    {
        type            nutkWallFunction;
        Cmu             0.09;
        kappa           0.41;
        E               9.8;
        value           nonuniform List<scalar> 9(9.44387e-05 0.000168695 0.00022948 0.000282423 0.000328369 0.000369419 0.000404654 0.000407961 0.000392116);
    }
    glass2
    {
        type            nutkWallFunction;
        Cmu             0.09;
        kappa           0.41;
        E               9.8;
        value           nonuniform List<scalar> 2(0.00019287 0.000208723);
    }
    sun
    {
        type            nutkWallFunction;
        Cmu             0.09;
        kappa           0.41;
        E               9.8;
        value           nonuniform List<scalar> 
14
(
9.44427e-05
9.61298e-05
7.74906e-05
7.85771e-05
8.1489e-05
8.45347e-05
8.76041e-05
9.07288e-05
9.4029e-05
9.71418e-05
9.96998e-05
0.000101475
0.000102262
0.000101886
)
;
    }
    heatsource1
    {
        type            nutkWallFunction;
        Cmu             0.09;
        kappa           0.41;
        E               9.8;
        value           nonuniform List<scalar> 3(0.000187654 0.00016612 0.00014525);
    }
    heatsource2
    {
        type            nutkWallFunction;
        Cmu             0.09;
        kappa           0.41;
        E               9.8;
        value           nonuniform List<scalar> 4(0.000107362 7.67351e-05 7.67351e-05 0.000114188);
    }
    Table_master
    {
        type            nutkWallFunction;
        Cmu             0.09;
        kappa           0.41;
        E               9.8;
        value           nonuniform List<scalar> 9(3.10524e-05 2.16966e-05 2.53535e-05 3.28292e-05 4.23231e-05 5.25101e-05 6.33916e-05 7.61966e-05 9.31818e-05);
    }
    Table_slave
    {
        type            nutkWallFunction;
        Cmu             0.09;
        kappa           0.41;
        E               9.8;
        value           nonuniform List<scalar> 9(0.000108496 0.000109145 0.000109907 0.000110523 0.000111043 0.000111692 0.000112884 0.00011532 0.000121693);
    }
    inlet
    {
        type            calculated;
        value           uniform 0.0153592;
    }
    outlet
    {
        type            calculated;
        value           nonuniform List<scalar> 2(0.00295865 0.00370644);
    }
}


// ************************************************************************* //
