/*--------------------------------*- C++ -*----------------------------------*\
  =========                 |
  \\      /  F ield         | OpenFOAM: The Open Source CFD Toolbox
   \\    /   O peration     | Website:  https://openfoam.org
    \\  /    A nd           | Version:  6
     \\/     M anipulation  |
\*---------------------------------------------------------------------------*/
FoamFile
{
    version     2.0;
    format      ascii;
    class       surfaceScalarField;
    location    "100";
    object      phi;
}
// * * * * * * * * * * * * * * * * * * * * * * * * * * * * * * * * * * * * * //

dimensions      [1 0 -1 0 0 0 0];

internalField   nonuniform List<scalar> 
850
(
-0.00222713
0.00228412
-0.00226943
4.24436e-05
-0.00229188
2.25963e-05
-0.00239491
0.000103183
-0.0025201
0.000125341
-0.0026348
0.000114851
-0.00272037
8.57081e-05
-0.00276241
4.21813e-05
-0.00274737
-1.49015e-05
-0.0026599
-8.73337e-05
-0.00248338
-0.000176388
-0.00220116
-0.00028209
-0.00178187
-0.000419164
-0.0011238
-0.000657952
-0.00112278
-0.000533997
0.000536539
-0.000537497
3.50636e-06
-0.000478891
-5.85957e-05
-0.000474205
-4.67398e-06
-0.000500995
2.68051e-05
-0.00052259
2.16119e-05
-0.000527079
4.50802e-06
-0.000513837
-1.32194e-05
-0.000483205
-3.06041e-05
-0.000442984
-4.01826e-05
-0.000408702
-3.42299e-05
-0.000394731
-1.39063e-05
-0.000385848
-8.8062e-06
-0.000314667
-7.10929e-05
-0.00013127
-0.000183297
0.000159728
-0.000290882
0.000375035
-0.000215199
0.00037713
-0.00160275
0.00403153
-0.00202783
0.000467667
-0.00222124
0.000216158
-0.00237021
0.000252308
-0.00250896
0.000264234
-0.00263012
0.000236163
-0.00272418
0.000179906
-0.00278194
0.000100078
-0.00279438
-2.32543e-06
-0.00275398
-0.000127597
-0.0026527
-0.000277541
-0.00247819
-0.00045648
-0.00221805
-0.000679188
-0.00192075
-0.000955142
-0.00187515
-0.00116827
-0.000770096
-0.00110327
0.00030197
-0.00107009
0.000308376
2.67668e-05
0.000516432
-0.000273856
0.000304127
-0.000494826
0.000162378
-0.000579209
7.97137e-05
-0.000608805
5.64073e-05
-0.000608474
2.12885e-05
-0.000593204
-1.07497e-05
-0.000579067
-2.73318e-05
-0.000567433
-4.21925e-05
-0.000559821
-4.77198e-05
-0.000556623
-3.73231e-05
-0.000560242
-1.01635e-05
-0.000573825
4.91098e-06
-0.000560983
-8.37928e-05
-0.000450138
-0.00029398
-0.000382464
-0.000358376
-0.000328333
-0.000269161
5.45812e-05
-0.00117369
0.00541776
-0.00174291
0.00103704
-0.00202452
0.00049792
-0.00220808
0.000436025
-0.00235296
0.000409261
-0.0024705
0.000353852
-0.00256182
0.000271362
-0.00262463
0.00016303
-0.00265578
2.89602e-05
-0.00265271
-0.000130538
-0.00261505
-0.000315064
-0.00254351
-0.000527898
-0.00244888
-0.000773701
-0.00236797
-0.00103593
-0.00229258
-0.00124355
-0.00204086
-0.00135488
-0.00168863
-0.00142223
-0.00137537
-0.000630415
0.00115517
-0.000811346
0.000485095
-0.000860032
0.000211111
-0.000822968
4.27035e-05
-0.000674495
-9.20003e-05
-0.000653044
-0.00066362
-0.000690754
-0.000732706
-0.000780127
-0.000817098
-0.000826879
-0.000821583
-0.000904983
-0.000685667
-0.000513022
-0.000650836
-0.000392882
-0.000585286
-0.00033432
-0.000524885
-0.000863047
0.00654875
-0.0014803
0.00165445
-0.00178204
0.000799819
-0.00198155
0.000635684
-0.00211927
0.000547135
-0.00221645
0.000451183
-0.00228472
0.000339775
-0.00233015
0.000208609
-0.0023562
5.51433e-05
-0.00236636
-0.000120235
-0.00236878
-0.000312511
-0.00237613
-0.000520417
-0.00240718
-0.000742526
-0.00248297
-0.000960011
-0.00259371
-0.0011327
-0.00271192
-0.00123655
-0.00288636
-0.00124768
-0.0033042
-0.000957428
-0.00295428
-0.000343998
-0.00214974
0.000350704
-0.00207675
0.000412213
-0.00211353
0.000248031
-0.00216071
9.00494e-05
-0.00221605
-3.64898e-05
-0.00213178
-8.42311e-05
-0.00201458
-0.000117156
-0.00187094
-0.000143576
-0.00171123
-0.000159638
-0.00154276
-0.000168383
-0.00136985
-0.000172805
-0.0011903
-0.000179421
-0.000984234
-0.000205929
-0.000688694
-0.000295383
-0.000695843
-0.000505551
-0.000475198
-0.000613178
-0.000111556
-0.000697582
-0.000631636
-0.000637088
0.00750123
-0.00127261
0.00229013
-0.00151461
0.00104198
-0.00169873
0.000819959
-0.0018212
0.000669768
-0.00188385
0.000513981
-0.00190608
0.000362156
-0.00190486
0.000207536
-0.00189086
4.12878e-05
-0.00187547
-0.000135484
-0.00187522
-0.000312626
-0.00190707
-0.000488421
-0.00198595
-0.000663518
-0.0021186
-0.000827228
-0.00229373
-0.00095743
-0.00249852
-0.00103163
-0.0027409
-0.00100518
-0.00291994
-0.000778263
-0.0028871
-0.000376723
-0.0025478
1.15315e-05
-0.0022762
0.00014075
-0.00213175
0.000103742
-0.00205814
1.66096e-05
-0.00202122
-7.32165e-05
-0.00196891
-0.000136346
-0.00190419
-0.00018166
-0.00183197
-0.000215574
-0.00175287
-0.0002385
-0.00166893
-0.000252068
-0.00158061
-0.000260853
-0.00148315
-0.000276607
-0.00136436
-0.000324423
-0.00121925
-0.000440201
-0.00109077
-0.000633728
-0.000835575
-0.000868062
-0.000374606
-0.00115824
0.000421178
-0.00142711
0.0016727
-0.00124814
0.0018204
-0.000143563
0.00185507
-0.00060675
0.00846523
-0.00119004
0.00287358
-0.00116111
0.00101322
-0.00124477
0.000903788
-0.00138262
0.00080778
-0.00142696
0.00055848
-0.00139475
0.000330101
-0.00132774
0.000140681
-0.00125099
-3.53136e-05
-0.00118729
-0.000199036
-0.00115988
-0.000339883
-0.00118427
-0.000463894
-0.00126867
-0.00057897
-0.00141096
-0.000684789
-0.00159789
-0.000770365
-0.00181309
-0.000816286
-0.00203191
-0.000786231
-0.00217469
-0.000635338
-0.00216762
-0.000383661
-0.00200934
-0.000146599
-0.00183651
-3.19292e-05
-0.00171027
-2.23297e-05
-0.00163366
-5.9832e-05
-0.00159493
-0.000111756
-0.0015719
-0.00015918
-0.00155511
-0.000198253
-0.00154267
-0.000227789
-0.00153451
-0.000246434
-0.00153199
-0.000254341
-0.00153657
-0.000256019
-0.001548
-0.000264918
-0.00156458
-0.000307582
-0.00158612
-0.0004184
-0.00159934
-0.000620242
-0.00154342
-0.000923715
-0.00135455
-0.00134685
-0.00092915
-0.00185226
-2.16592e-05
-0.00215536
0.000708525
-0.000873429
0.00259986
-0.000819641
0.00968104
-0.000854417
0.00290852
-0.00029179
0.000450773
-0.00022675
0.000838928
-0.000480406
0.00106161
-0.000599806
0.000678052
-0.000564051
0.000294516
-0.000459852
3.66467e-05
-0.000349308
-0.000145696
-0.000268407
-0.000279777
-0.000233337
-0.000374795
-0.000256446
-0.000440629
-0.000341904
-0.000493356
-0.000484578
-0.000541962
-0.000670671
-0.00058412
-0.000879657
-0.000607149
-0.00107882
-0.00058692
-0.00121643
-0.000497585
-0.001249
-0.000350944
-0.00118844
-0.000207013
-0.00109947
-0.000120743
-0.00102786
-9.37795e-05
-0.000984967
-0.000102554
-0.000968506
-0.000128041
-0.000970508
-0.000156994
-0.000985522
-0.000183045
-0.00101132
-0.000201791
-0.00104825
-0.000209285
-0.00109963
-0.00020274
-0.00117225
-0.000183156
-0.00127677
-0.000160162
-0.00142714
-0.000156975
-0.00163562
-0.000209687
-0.00189886
-0.00035677
-0.00219221
-0.000630142
-0.00248441
-0.00105442
-0.00271903
-0.0016174
-0.00271454
-0.00215961
-0.00158841
-0.00199928
0.0010537
0.00164726
0.00847902
0.00234816
0.00220777
0.00243344
0.000365657
0.00193829
0.00133427
0.00144259
0.0015575
0.00117102
0.000949805
0.00103825
0.000427469
0.000977127
9.79502e-05
0.000956971
-0.000125367
0.000945667
-0.000268303
0.000911746
-0.000340706
0.000844441
-0.000373158
0.000738428
-0.000387177
0.000592362
-0.000395732
0.000411513
-0.000403108
0.000210043
-0.000405517
1.47273e-05
-0.000391445
-0.000135361
-0.00034734
-0.000211596
-0.000274553
-0.000221921
-0.000196532
-0.00020134
-0.000141166
-0.00017982
-0.000115138
-0.000170904
-0.000111305
-0.000178044
-0.000120731
-0.000199393
-0.000135469
-0.000232346
-0.00014991
-0.000274718
-0.000159229
-0.000325276
-0.000158529
-0.000384781
-0.000143028
-0.000458301
-0.000109423
-0.000559208
-5.9037e-05
-0.000714299
-1.66497e-06
-0.000969701
4.59322e-05
-0.00137506
4.88041e-05
-0.00195695
-4.80485e-05
-0.00274512
-0.000266048
-0.00383114
-0.000531185
-0.00519577
-0.000794793
-0.00533303
-0.00186185
-0.00412402
0.00896533
0.0111603
0.00894455
0.00258158
0.00611287
0.00416612
0.00479054
0.00288002
0.00399897
0.00174155
0.00345075
0.000975875
0.00305042
0.000498457
0.00272932
0.000195921
0.00246214
-9.44611e-07
0.00224415
-0.000122537
0.00206091
-0.000189741
0.00189402
-0.000220109
0.00172751
-0.000229041
0.00155196
-0.000227386
0.00136801
-0.00022139
0.00118807
-0.000211334
0.00103362
-0.000192722
0.000922545
-0.000163311
0.000855759
-0.000129579
0.000817557
-0.000102797
0.000790754
-8.81686e-05
0.000764281
-8.46636e-05
0.000732622
-8.89022e-05
0.000694201
-9.68745e-05
0.000649364
-0.000104897
0.000599721
-0.000109406
0.000548036
-0.00010666
0.000498231
-9.30332e-05
0.00045466
-6.56577e-05
0.000420941
-2.51198e-05
0.000397556
2.19187e-05
0.000382265
6.14253e-05
0.000367141
6.41286e-05
0.000338757
-1.94664e-05
0.00028616
-0.000213259
0.000244321
-0.000489161
0.000296242
-0.000846538
0.000159746
-0.00172518
-0.00379695
-0.0010394
0.00268304
0.00103845
0.00208849
0.00246195
0.00145672
0.00304451
0.00115918
0.0032425
0.000778076
0.0032943
0.000446851
0.00327052
0.000219891
0.00319392
7.58404e-05
0.00309045
-1.88712e-05
0.00297489
-7.39948e-05
0.00285456
-9.95846e-05
0.0027301
-0.000104393
0.00259958
-9.66715e-05
0.00246216
-8.37827e-05
0.00232106
-7.0056e-05
0.00218503
-5.65056e-05
0.0020648
-4.28981e-05
0.00196633
-3.09289e-05
0.00188755
-2.38417e-05
0.0018225
-2.29481e-05
0.00176522
-2.72073e-05
0.0017111
-3.46047e-05
0.0016573
-4.29041e-05
0.0016026
-5.0017e-05
0.00154733
-5.39665e-05
0.00149353
-5.26835e-05
0.00144552
-4.48451e-05
0.00140903
-2.89868e-05
0.00139035
-6.25482e-06
0.00139604
1.64038e-05
0.00143167
2.59854e-05
0.00149404
1.94646e-06
0.00156129
-8.6539e-05
0.00161111
-0.000262892
0.00165437
-0.000532246
0.00171827
-0.000910273
0.00155995
-0.0015667
-0.00220095
-0.000372162
0.00303866
0.00145037
0.000266197
0.00231175
0.00059557
0.00290635
0.0005648
0.00333317
0.00035147
0.00358873
0.000191509
0.00371488
9.39489e-05
0.00375649
3.4439e-05
0.00373579
2.04125e-06
0.00366748
-5.47891e-06
0.00356948
-1.37677e-06
0.00345531
9.97971e-06
0.0033358
2.30384e-05
0.00321776
3.44565e-05
0.00310501
4.28951e-05
0.00300071
4.79858e-05
0.00290828
4.97266e-05
0.00282947
4.80664e-05
0.00276274
4.30789e-05
0.00270446
3.55144e-05
0.00265078
2.66481e-05
0.00259861
1.77454e-05
0.00254607
9.81856e-06
0.00249261
3.61003e-06
0.00243914
-3.2168e-07
0.00238809
-1.46259e-06
0.00234332
8.75744e-08
0.00231023
4.27633e-06
0.00229456
9.58277e-06
0.00229772
1.34061e-05
0.00231844
5.44399e-06
0.00234617
-2.56142e-05
0.00234786
-8.80625e-05
0.00228235
-0.000197214
0.00211056
-0.000360287
0.00176923
-0.000568783
0.00107793
-0.000875257
-0.00108187
0.00426893
-0.00114676
0.00186734
0.0021091
0.00267885
0.00321583
0.00353716
0.00369622
0.00375553
0.00375334
0.00371705
0.00367194
0.00363006
0.00359913
0.00358128
0.00357523
0.00357825
0.00358712
0.00359855
0.00360913
0.00361549
0.00361498
0.00360623
0.00358916
0.00356469
0.00353454
0.00350099
0.00346683
0.00343477
0.00340749
0.0033861
0.00336912
0.0033447
0.00328964
0.00317248
0.00294637
0.00255721
0.00195938
0.00105576
)
;

boundaryField
{
    floor
    {
        type            calculated;
        value           nonuniform List<scalar> 
36
(
0
0
0
0
0
0
0
0
0
0
0
0
0
0
0
0
0
0
0
-2.01824e-06
-5.67833e-06
-5.35411e-06
-4.38384e-06
-3.07305e-06
-3.79162e-06
-4.52949e-06
-9.11558e-07
-1.6837e-06
-1.87946e-06
-2.49055e-06
-2.53622e-06
-3.81201e-06
-6.65436e-06
-4.79012e-06
-8.3009e-06
-5.84352e-06
)
;
    }
    ceiling
    {
        type            calculated;
        value           nonuniform List<scalar> 
43
(
6.51394e-05
4.6794e-05
2.48408e-05
2.47125e-05
2.60927e-05
2.80937e-05
3.03916e-05
3.2702e-05
3.48879e-05
3.68693e-05
3.85651e-05
3.98622e-05
4.07309e-05
4.11348e-05
4.1102e-05
4.0719e-05
4.00928e-05
3.9325e-05
3.85006e-05
3.76847e-05
3.69193e-05
3.62223e-05
3.55919e-05
3.50143e-05
3.44715e-05
3.39448e-05
3.34175e-05
3.28751e-05
3.23155e-05
3.17324e-05
3.11361e-05
3.05491e-05
3.00321e-05
2.95963e-05
2.92525e-05
2.9045e-05
2.90201e-05
2.91968e-05
2.84933e-05
3.07891e-05
1.57966e-05
1.29394e-05
1.68132e-05
)
;
    }
    sWall
    {
        type            calculated;
        value           uniform -0.000130397;
    }
    nWall
    {
        type            calculated;
        value           nonuniform List<scalar> 6(-2.97732e-05 -3.58785e-05 -4.18701e-05 -3.59086e-05 -4.10203e-05 -5.67668e-05);
    }
    sideWalls
    {
        type            empty;
        value           nonuniform 0();
    }
    glass1
    {
        type            calculated;
        value           nonuniform List<scalar> 9(-5.68505e-05 -0.00014451 -0.00021241 -0.000267808 -0.000315255 -0.000357113 -0.000396038 -0.000445104 -0.000501976);
    }
    glass2
    {
        type            calculated;
        value           nonuniform List<scalar> 2(-0.000155119 -0.000167176);
    }
    sun
    {
        type            calculated;
        value           uniform 0;
    }
    Table_master
    {
        type            calculated;
        value           nonuniform List<scalar> 9(-1.52972e-07 -1.52978e-07 -1.52959e-07 -1.52921e-07 -1.52862e-07 -1.52783e-07 -1.52692e-07 -1.52589e-07 -1.52424e-07);
    }
    Table_slave
    {
        type            calculated;
        value           nonuniform List<scalar> 9(1.51843e-07 1.51869e-07 1.51901e-07 1.51941e-07 1.51983e-07 1.52024e-07 1.5206e-07 1.5209e-07 1.52084e-07);
    }
    inlet
    {
        type            calculated;
        value           uniform 0.000938229;
    }
    outlet
    {
        type            calculated;
        value           nonuniform List<scalar> 2(-0.00420336 0.00536922);
    }
}


// ************************************************************************* //
