/*--------------------------------*- C++ -*----------------------------------*\
  =========                 |
  \\      /  F ield         | OpenFOAM: The Open Source CFD Toolbox
   \\    /   O peration     | Website:  https://openfoam.org
    \\  /    A nd           | Version:  6
     \\/     M anipulation  |
\*---------------------------------------------------------------------------*/
FoamFile
{
    version     2.0;
    format      ascii;
    class       surfaceScalarField;
    location    "100";
    object      phi;
}
// * * * * * * * * * * * * * * * * * * * * * * * * * * * * * * * * * * * * * //

dimensions      [1 0 -1 0 0 0 0];

internalField   nonuniform List<scalar> 
853
(
-0.00108482
0.00111104
-0.00113618
5.14868e-05
-0.00116043
2.43854e-05
-0.00123131
7.10131e-05
-0.00132131
9.01256e-05
-0.00141501
9.38324e-05
-0.00150473
8.98612e-05
-0.00158519
8.0592e-05
-0.00165181
6.67562e-05
-0.0016999
4.8229e-05
-0.00172408
2.43161e-05
-0.00171764
-6.2973e-06
-0.00167129
-4.62012e-05
-0.0015727
-9.84457e-05
-0.00140797
-0.000164578
-0.00115944
-0.000248386
-0.000772142
-0.000387145
-0.000773733
-7.18361e-05
6.90452e-05
-0.000519835
0.000448172
-0.000773184
0.000253532
-0.000949623
0.000176628
-0.00106091
0.000111474
-0.00112522
6.45077e-05
-0.0011642
3.91784e-05
-0.00118957
2.55779e-05
-0.00120458
1.52107e-05
-0.00120991
5.54613e-06
-0.00120812
-1.55986e-06
-0.00118035
-2.75332e-05
-0.00102412
-0.000155989
-0.000615139
-0.000408713
-0.000173378
-0.000441496
-0.000175146
-0.000820348
0.00200514
-0.00108017
0.000311447
-0.00120002
0.000144376
-0.00129634
0.000167471
-0.00139448
0.000188404
-0.00149214
0.000191635
-0.001585
0.000182859
-0.00166915
0.000164892
-0.00174082
0.00013857
-0.00179585
0.000103405
-0.00182936
5.79782e-05
-0.00183542
-8.817e-08
-0.00180735
-7.41084e-05
-0.00173694
-0.000168707
-0.00161292
-0.000288436
-0.00141958
-0.000441568
-0.00116057
-0.000645986
-0.00106895
-0.000865193
-0.000344512
-0.000728576
0.000153586
-0.00050231
0.000142166
-0.000390522
0.000452486
-0.00066752
0.000725351
-0.000911564
0.000497765
-0.00107095
0.000336207
-0.0011634
0.000204128
-0.0012061
0.000107413
-0.0012271
6.0391e-05
-0.00123931
3.80023e-05
-0.00124521
2.1338e-05
-0.00124435
4.91954e-06
-0.00123762
-8.02789e-06
-0.00121438
-5.05002e-05
-0.00108371
-0.000286374
-0.000712077
-0.000780028
-0.000182327
-0.000970925
-0.000360641
-0.000620779
0.00274567
-0.000987596
0.000678409
-0.00117099
0.000327914
-0.00129026
0.00028689
-0.0013957
0.000294003
-0.00149557
0.000291656
-0.00158955
0.000276986
-0.00167555
0.00025105
-0.00175104
0.000214214
-0.00181288
0.000165409
-0.00185717
0.000102427
-0.0018791
2.20079e-05
-0.00187307
-7.99735e-05
-0.00183227
-0.000209337
-0.00174721
-0.000373318
-0.00161029
-0.000578314
-0.0014348
-0.000821299
-0.00125016
-0.00104965
-0.000797262
-0.00118129
3.04723e-05
-0.00132986
0.00016474
-0.000646015
0.00108631
-0.000871719
0.000951246
-0.0010437
0.000669943
-0.00115514
0.000447847
-0.00121102
0.000260218
-0.00121013
0.000106739
-0.00120208
5.25691e-05
-0.00119697
3.31227e-05
-0.00119293
1.75399e-05
-0.00118781
6.6236e-08
-0.00118325
-1.23083e-05
-0.00119403
-3.9411e-05
-0.00117232
-0.000307753
-0.000817117
-0.00113486
-0.00032957
-0.0014581
-0.000695408
-0.000458696
0.0033701
-0.000888139
0.00110801
-0.00111132
0.000551248
-0.00124643
0.000422167
-0.00135549
0.000403227
-0.00145385
0.000390181
-0.00154496
0.000368254
-0.00162891
0.000335172
-0.00170489
0.000290368
-0.00177157
0.00023226
-0.00182698
0.000158011
-0.00186825
6.34589e-05
-0.00189165
-5.63972e-05
-0.00189361
-0.000207194
-0.00187063
-0.000396107
-0.0018233
-0.000625453
-0.00175885
-0.000885552
-0.00166181
-0.0011465
-0.00147493
-0.00136798
-0.00137577
-0.00142882
-0.00122206
-0.00101609
0.0020855
-0.00112566
0.00106103
-0.00117438
0.000718867
-0.00119103
0.000464717
-0.00119524
0.000264646
-0.00108811
-0.00103514
-0.00100159
-0.000983613
-0.000983082
-0.000994894
-0.00103377
-0.00134095
-0.000971357
-0.00150404
-0.000668262
-0.00176076
-0.00137071
-0.000310276
0.0038934
-0.000772653
0.00157055
-0.0010266
0.000805365
-0.00117189
0.00056763
-0.001279
0.00051051
-0.0013703
0.000481653
-0.00145124
0.000449377
-0.00152418
0.000408289
-0.00159043
0.000356809
-0.00165114
0.000293154
-0.00170733
0.000214396
-0.00175935
0.000115669
-0.00180585
-9.69393e-06
-0.00184621
-0.00016663
-0.0018843
-0.000357815
-0.00193034
-0.000579196
-0.00200431
-0.000811371
-0.00213256
-0.00101803
-0.00235457
-0.00114575
-0.00267035
-0.00111283
-0.00305428
-0.000837907
-0.00312607
5.324e-05
-0.00186772
0.000827363
-0.00144834
0.000641882
-0.00132106
0.000591825
-0.00128421
0.000428126
-0.00127623
0.000256947
-0.00138475
0.000108652
-0.00143569
5.10774e-05
-0.00144949
1.39602e-05
-0.00143778
-1.15463e-05
-0.00140299
-3.4603e-05
-0.00134392
-5.88665e-05
-0.00123098
-0.000112717
-0.000866722
-0.000364022
-0.00114748
-0.00122284
-0.00121698
-0.00169078
-0.00259649
-0.000149385
0.00430564
-0.000619999
0.00204135
-0.000890225
0.00107577
-0.00105336
0.000730945
-0.00116194
0.000619283
-0.00124406
0.000563965
-0.00130728
0.000512792
-0.00135702
0.000458227
-0.00139743
0.000397413
-0.00143244
0.000328369
-0.0014664
0.000248566
-0.00150341
0.000152895
-0.0015458
3.29106e-05
-0.00159241
-0.000119794
-0.00164514
-0.000304853
-0.00171253
-0.000511578
-0.00180887
-0.000714787
-0.00194831
-0.000878346
-0.00213342
-0.000960385
-0.00233718
-0.00090882
-0.00252197
-0.000652863
-0.00231911
-0.000149368
-0.00179191
0.000300418
-0.00148358
0.000333815
-0.00126253
0.000371056
-0.00113931
0.0003052
-0.00109048
0.000208424
-0.00109518
0.000113674
-0.0010979
5.41395e-05
-0.00109295
9.36212e-06
-0.00107771
-2.6413e-05
-0.00105228
-5.96415e-05
-0.00101159
-9.91378e-05
-0.000940503
-0.00018337
-0.000870037
-0.000434029
-0.00113324
-0.00095915
-0.00143076
-0.00139275
-0.00225909
-0.00176763
-0.00140943
-0.000871149
-0.00143901
0.000118458
0.00450334
-0.000279174
0.00243917
-0.00058887
0.00138567
-0.000813076
0.00095535
-0.000968415
0.000774823
-0.00105872
0.000654475
-0.00110279
0.000557074
-0.0011185
0.000474147
-0.00111629
0.000395418
-0.00110402
0.000316326
-0.00109021
0.000234981
-0.00108382
0.00014674
-0.00109107
4.03931e-05
-0.00111064
-9.99745e-05
-0.00114071
-0.000274533
-0.00118532
-0.000466713
-0.00125635
-0.000643494
-0.00136604
-0.000768384
-0.00151306
-0.000813085
-0.00167004
-0.00075156
-0.00176547
-0.000557139
-0.0016571
-0.000257455
-0.00136958
1.31885e-05
-0.00114902
0.000113563
-0.000955117
0.000177458
-0.000821742
0.000172146
-0.00074474
0.000131754
-0.000708575
7.78523e-05
-0.000684703
3.06269e-05
-0.000662069
-1.28949e-05
-0.000634265
-5.38231e-05
-0.000597671
-9.58245e-05
-0.000546924
-0.000149453
-0.000484741
-0.0002451
-0.000467745
-0.000450547
-0.000620751
-0.000805637
-0.00085758
-0.00115538
-0.00120475
-0.00141988
-0.000797815
-0.00127747
-0.0022429
-4.61248e-05
0.004922
-0.000228029
0.00262128
-0.00021696
0.00137481
-0.00034851
0.00108711
-0.000581891
0.00100842
-0.000723022
0.000795828
-0.000756325
0.000590602
-0.000732953
0.000451007
-0.00067711
0.00033981
-0.000602076
0.000241534
-0.000522141
0.000155292
-0.00045337
7.82207e-05
-0.000406971
-5.74847e-06
-0.000380105
-0.000126576
-0.000363436
-0.00029093
-0.000355409
-0.000474461
-0.000373492
-0.000625122
-0.000437894
-0.000703683
-0.000550204
-0.000700469
-0.000681271
-0.00062018
-0.000768707
-0.000469384
-0.000750455
-0.000275381
-0.000634601
-0.000102332
-0.000514655
-6.04415e-06
-0.000386827
4.99725e-05
-0.000280546
6.62143e-05
-0.000203824
5.53901e-05
-0.000153279
2.76762e-05
-0.000115346
-6.9225e-06
-8.27074e-05
-4.51375e-05
-4.99319e-05
-8.61888e-05
-1.11175e-05
-0.000134214
3.75546e-05
-0.000197682
8.82568e-05
-0.000295338
9.85061e-05
-0.000460308
1.59164e-06
-0.000708204
-0.000182799
-0.000970437
-0.00036989
-0.0012322
-8.82374e-05
-0.00155849
-0.00233848
0.00028091
0.0050795
0.000624533
0.00227789
0.00124666
0.000752911
0.000961798
0.00137221
0.000532235
0.00143822
0.000280963
0.00104734
0.00018182
0.000689991
0.000182988
0.000450089
0.000251057
0.000271997
0.000355625
0.000137226
0.000469541
4.16438e-05
0.000569748
-2.17125e-05
0.000637407
-7.31276e-05
0.000697509
-0.000186391
0.000774318
-0.000367446
0.000848573
-0.000548413
0.000880877
-0.000657115
0.000845399
-0.000667883
0.000743323
-0.000598062
0.000604154
-0.000480671
0.000477962
-0.000342844
0.0004086
-0.000205663
0.000401969
-9.53385e-05
0.000426843
-3.05491e-05
0.000474255
2.93611e-06
0.000528094
1.27564e-05
0.000577717
6.15586e-06
0.000619307
-1.35138e-05
0.000653325
-4.05321e-05
0.000681465
-7.28609e-05
0.000707364
-0.000111661
0.000733986
-0.000160397
0.000762506
-0.000225748
0.000787187
-0.000319547
0.000786427
-0.000459053
0.000731533
-0.000652788
0.000640918
-0.000879262
0.000575912
-0.00116659
0.000689434
-0.00167135
-0.00170007
0.00558654
0.00784496
0.00857716
0.00646144
0.00348819
0.00559609
0.00230383
0.00491984
0.00172386
0.0043309
0.0012792
0.00387399
0.000907268
0.00352589
0.000620381
0.00325254
0.000410864
0.00303349
0.000260986
0.0028672
0.000144876
0.00276798
2.63933e-05
0.00273612
-0.00015421
0.00272585
-0.000356865
0.00268307
-0.000505299
0.0025761
-0.000549816
0.00240741
-0.000498841
0.00220069
-0.000390994
0.00198826
-0.000267876
0.00180299
-0.000157201
0.00166921
-7.15041e-05
0.00159076
-1.64964e-05
0.00155354
7.06994e-06
0.00154529
1.15867e-05
0.00155384
4.62141e-06
0.00156966
-9.25376e-06
0.00158565
-2.90706e-05
0.0015983
-5.27511e-05
0.00160613
-8.02537e-05
0.00160872
-0.000113804
0.00160591
-0.000157139
0.00159626
-0.000215629
0.00157418
-0.000296986
0.00152646
-0.000410841
0.00143721
-0.000563009
0.00131072
-0.000752213
0.00115448
-0.00100973
0.000878301
-0.0013945
-0.000885323
0.00238436
0.00101912
0.00343649
0.00125197
0.00412324
0.0010374
0.00461902
0.000783718
0.00496032
0.000566264
0.00518735
0.000393654
0.00533317
0.000265353
0.00541889
0.000175576
0.00545097
0.000113127
0.00541455
6.31382e-05
0.0052264
3.42807e-05
0.00485683
1.3052e-05
0.00435487
-2.9892e-06
0.00381831
-1.28926e-05
0.00333842
-1.85743e-05
0.00296842
-2.06181e-05
0.00272057
-1.96302e-05
0.00258006
-1.62913e-05
0.00252073
-1.17658e-05
0.00251257
-7.92027e-06
0.0025257
-5.64185e-06
0.0025442
-6.47536e-06
0.0025602
-1.09454e-05
0.00256874
-1.73516e-05
0.0025654
-2.5274e-05
0.00254922
-3.61191e-05
0.00252033
-5.08971e-05
0.00247817
-7.11808e-05
0.00242039
-9.88842e-05
0.0023419
-0.000136659
0.00223354
-0.000188139
0.00208125
-0.00025804
0.0018706
-0.000351836
0.00159859
-0.000479636
0.00126139
-0.00067191
0.000663423
-0.000795842
-0.000235256
9.78301e-05
2.37908e-06
-9.07274e-05
0.000887318
0.00209817
0.00309272
0.00383142
0.00435038
0.00469451
0.00490822
0.00503025
0.00508816
0.00509477
0.00507174
0.00502742
0.00496786
0.00489987
0.00482777
0.00475483
0.00468347
0.00461549
0.00455165
0.00449099
0.00443179
0.00437087
0.0043046
0.00423107
0.00414881
0.00405494
0.00394554
0.0038151
0.00365621
0.00345873
0.00320893
0.00288833
0.00247299
0.00192887
0.00119149
0.000328079
)
;

boundaryField
{
    floor
    {
        type            calculated;
        value           nonuniform List<scalar> 
36
(
0
0
0
0
0
0
0
0
0
0
0
0
0
0
0
0
0
2.00246e-06
3.46109e-06
5.56416e-06
7.47519e-06
9.30905e-06
2.20527e-05
2.45938e-05
1.74603e-06
4.30621e-06
4.38083e-06
5.57519e-06
2.94405e-06
6.0223e-06
7.25142e-06
8.08352e-06
1.23762e-05
1.12264e-05
1.70885e-05
1.8761e-05
)
;
    }
    ceiling
    {
        type            calculated;
        value           nonuniform List<scalar> 
47
(
4.73309e-05
5.04236e-05
4.91656e-05
4.13763e-05
4.1426e-05
4.31606e-05
4.5341e-05
4.76194e-05
4.98621e-05
5.19762e-05
5.38976e-05
5.55655e-05
5.68853e-05
5.76828e-05
5.77477e-05
5.69588e-05
5.54916e-05
5.39228e-05
5.27424e-05
5.21498e-05
5.21153e-05
5.25113e-05
5.31842e-05
5.40112e-05
5.48999e-05
5.57889e-05
5.66506e-05
5.74661e-05
5.82405e-05
5.89892e-05
5.97395e-05
6.05063e-05
6.13104e-05
6.21664e-05
6.3074e-05
6.40316e-05
6.50413e-05
6.6093e-05
6.82688e-05
7.52633e-05
2.38356e-05
1.97128e-05
2.09584e-05
4.26139e-05
4.53648e-05
8.49878e-05
4.42657e-05
)
;
    }
    sWall
    {
        type            calculated;
        value           uniform -0.000187437;
    }
    nWall
    {
        type            calculated;
        value           nonuniform List<scalar> 5(5.56866e-06 6.71097e-06 8.03321e-06 1.41469e-05 1.83553e-05);
    }
    sideWalls
    {
        type            empty;
        value           nonuniform 0();
    }
    glass1
    {
        type            calculated;
        value           nonuniform List<scalar> 10(-2.60957e-05 -7.36092e-05 -0.000119602 -0.000165581 -0.000212851 -0.000262677 -0.000315963 -0.000372324 -0.000438177 -0.00053063);
    }
    glass2
    {
        type            calculated;
        value           nonuniform List<scalar> 2(5.17434e-05 6.43161e-05);
    }
    sun
    {
        type            calculated;
        value           uniform 0;
    }
    Table_master
    {
        type            calculated;
        value           nonuniform List<scalar> 8(-1.70353e-07 -1.7345e-07 -1.76575e-07 -1.79757e-07 -1.82972e-07 -1.86219e-07 -1.89508e-07 -1.92701e-07);
    }
    Table_slave
    {
        type            calculated;
        value           nonuniform List<scalar> 8(1.70078e-07 1.73111e-07 1.76211e-07 1.79385e-07 1.82607e-07 1.85886e-07 1.89236e-07 1.92615e-07);
    }
    inlet
    {
        type            calculated;
        value           nonuniform 0();
    }
    outlet
    {
        type            calculated;
        value           nonuniform 0();
    }
}


// ************************************************************************* //
