/*--------------------------------*- C++ -*----------------------------------*\
  =========                 |
  \\      /  F ield         | OpenFOAM: The Open Source CFD Toolbox
   \\    /   O peration     | Website:  https://openfoam.org
    \\  /    A nd           | Version:  6
     \\/     M anipulation  |
\*---------------------------------------------------------------------------*/
FoamFile
{
    version     2.0;
    format      ascii;
    class       surfaceScalarField;
    location    "100";
    object      phi;
}
// * * * * * * * * * * * * * * * * * * * * * * * * * * * * * * * * * * * * * //

dimensions      [1 0 -1 0 0 0 0];

internalField   nonuniform List<scalar> 
852
(
-0.00237516
0.00241371
-0.00308566
0.000710538
-0.00337635
0.000290727
-0.00348103
0.000104731
-0.00342714
-5.38493e-05
-0.0032598
-0.000167294
-0.00304249
-0.000217256
-0.00281166
-0.000230779
-0.0025694
-0.000242195
-0.00230147
-0.00026787
-0.00198677
-0.000314627
-0.00160133
-0.000385365
-0.00112412
-0.000477124
-0.000559178
-0.000564842
-0.000561449
-8.05944e-05
7.68035e-05
-0.000433571
0.000352975
-0.000592088
0.000158521
-0.000643258
5.11757e-05
-0.000646191
2.94314e-06
-0.000640053
-6.12242e-06
-0.000612342
-2.76858e-05
-0.000544767
-6.75385e-05
-0.00045276
-9.19571e-05
-0.000352095
-0.0001006
-0.000260072
-9.19448e-05
-0.000197349
-6.26362e-05
-0.000183539
-1.37175e-05
-0.00020803
2.46103e-05
-0.000210623
2.71715e-06
-0.000179796
-3.07263e-05
-0.000211246
3.14672e-05
-0.000345052
0.00013393
-0.000347442
-0.00191777
0.00443305
-0.00265601
0.00144883
-0.00297774
0.000612517
-0.00317746
0.000304525
-0.00322124
-9.99783e-06
-0.00310357
-0.000284882
-0.00293997
-0.000380762
-0.0027808
-0.000389853
-0.00262307
-0.00039981
-0.00245293
-0.000437896
-0.00225442
-0.000512993
-0.00201185
-0.000627792
-0.00171192
-0.000776886
-0.00133455
-0.000942025
-0.000808734
-0.00108706
0.000251291
-0.00105987
0.000251315
-0.000481155
0.000547789
-0.000592705
0.000464545
-0.000652091
0.000217937
-0.000643268
4.23943e-05
-0.000605811
-3.44563e-05
-0.000615007
3.12303e-06
-0.000634582
-8.06432e-06
-0.000618841
-8.32127e-05
-0.000598159
-0.00011254
-0.000579699
-0.000118919
-0.000567379
-0.000104082
-0.000562766
-6.70368e-05
-0.000567664
-8.59813e-06
-0.000580799
3.79636e-05
-0.000562735
-1.51523e-05
-0.000397307
-0.000195976
-0.000191237
-0.00017449
2.85296e-05
-8.5685e-05
-0.000325672
-0.000441865
0.00503053
-0.00104247
0.0020495
-0.00144584
0.00101597
-0.00203825
0.000897008
-0.00250885
0.000460698
-0.00258785
-0.000205783
-0.00255356
-0.000414935
-0.00251357
-0.000429705
-0.00246894
-0.00044429
-0.00242004
-0.000486623
-0.0023645
-0.000568349
-0.00229671
-0.000695361
-0.00220974
-0.000863614
-0.00209631
-0.00105518
-0.00194967
-0.00123341
-0.00166202
-0.00134721
-0.00141041
-0.000937157
0.00147094
-0.000983722
0.000511251
-0.000919327
0.000153733
-0.000842402
-3.42481e-05
-0.000727109
-0.000149405
-0.000453386
-0.000270263
-0.000461236
-0.000544202
-0.000656419
-0.000774921
-0.000878499
-0.000944981
-0.000953026
-0.000914559
-0.000929239
-0.000560614
-0.00056431
-0.000230184
-0.000504654
0.000235075
-0.0005507
-0.000102319
0.00572223
-0.000505238
0.00578555
0.00198634
0.00410855
0.00269311
0.00215018
0.00285549
0.000174572
0.0024364
-0.00127943
0.00124833
-0.00183759
0.000143366
-0.00202402
-0.000243129
-0.0021101
-0.000358032
-0.00217501
-0.000421508
-0.00224857
-0.000494556
-0.00234478
-0.000598894
-0.00247357
-0.000734515
-0.00264649
-0.000881905
-0.00287154
-0.00100796
-0.0031557
-0.00106263
-0.00366707
-0.000898611
-0.00350245
-0.00017735
-0.0023843
0.000353167
-0.00208913
0.000216567
-0.00205649
0.000121645
-0.00208188
-8.28039e-06
-0.00211456
-0.000116113
-0.00221524
-0.000168954
-0.00208332
-0.000131434
-0.00195651
-0.000126334
-0.00182282
-0.000133226
-0.00168236
-0.000140001
-0.00153492
-0.000147004
-0.0013796
-0.000154906
-0.00121292
-0.000166288
-0.00101642
-0.000196152
-0.000723578
-0.000292544
-0.000755076
-0.000532446
-0.000577676
-0.000681718
-0.000400479
-0.000727571
-0.000521753
0.00367911
-0.00410649
0.00522814
0.000437446
0.00472959
0.00319176
0.00329774
0.00428743
0.00168311
0.0040511
9.57113e-05
0.00283583
-0.000943999
0.00118322
-0.00137807
0.000191104
-0.00156955
-0.000166368
-0.00168951
-0.00030133
-0.00180834
-0.000375484
-0.00195214
-0.000454807
-0.00212822
-0.000558115
-0.00233378
-0.000675955
-0.00256057
-0.000780739
-0.00280689
-0.000815795
-0.00303263
-0.000672317
-0.00288736
-0.000322003
-0.00249362
-3.9914e-05
-0.00226294
-1.34423e-05
-0.00210828
-3.23221e-05
-0.00202049
-9.53819e-05
-0.00197416
-0.000161776
-0.00194067
-0.000201784
-0.00186029
-0.000211162
-0.00176533
-0.000220661
-0.00166555
-0.000232374
-0.00156153
-0.000243413
-0.00145496
-0.000252984
-0.00134768
-0.000261623
-0.00124043
-0.000273015
-0.00113582
-0.000300274
-0.00106125
-0.000366681
-0.00112565
-0.000467665
-0.00128312
-0.000523889
-0.00150723
-0.000503113
-0.00163016
-0.000398452
-0.00138864
-0.0002413
-0.00118299
-0.000205419
-0.00119819
0.0022792
-0.0063087
0.00400644
-0.00128962
0.00397353
0.0032248
0.00296959
0.00529146
0.00175719
0.00526359
0.000663859
0.00392926
-0.000231553
0.00207877
-0.000726709
0.000686429
-0.00095717
6.42834e-05
-0.00108436
-0.000173919
-0.00119543
-0.000264177
-0.00132646
-0.000323494
-0.00148808
-0.000396185
-0.00167798
-0.000485684
-0.00188744
-0.000570847
-0.00209663
-0.00060612
-0.00223471
-0.000533679
-0.00219087
-0.000365222
-0.00201547
-0.000214633
-0.00186539
-0.000162812
-0.00174082
-0.000156189
-0.00165302
-0.000182489
-0.00159455
-0.000219562
-0.00154607
-0.000249601
-0.00148828
-0.000268301
-0.00142296
-0.000285339
-0.00135257
-0.000302138
-0.00127748
-0.000317897
-0.00119803
-0.000331858
-0.00111508
-0.000344009
-0.00103084
-0.000356731
-0.000953119
-0.000377515
-0.000903787
-0.000415583
-0.000909218
-0.000461858
-0.0009542
-0.000478572
-0.00100949
-0.000447522
-0.00101706
-0.000390584
-0.000874088
-0.00038397
-0.000615358
-0.000463838
-0.00182983
0.00116544
-0.00739094
0.00280012
-0.0029241
0.00295269
0.00307239
0.0020284
0.00621586
0.00118017
0.00611193
0.000626704
0.00448283
0.000201699
0.00250392
-0.00013423
0.00102254
-0.000330125
0.000260378
-0.000437163
-6.66613e-05
-0.000512629
-0.000188463
-0.000594713
-0.000241134
-0.000701624
-0.000288965
-0.000838821
-0.00034814
-0.00100036
-0.000408915
-0.00116226
-0.000443775
-0.001274
-0.000421432
-0.00129108
-0.000347585
-0.00123166
-0.000273445
-0.00115768
-0.000236148
-0.00108786
-0.00022536
-0.00103413
-0.000235563
-0.000996622
-0.00025641
-0.000967014
-0.000278562
-0.000936349
-0.000298329
-0.000902764
-0.000318301
-0.00086555
-0.000338743
-0.000823819
-0.000359038
-0.000776611
-0.000378496
-0.000723231
-0.000396846
-0.000664218
-0.000415235
-0.000603904
-0.00043736
-0.000551784
-0.000467282
-0.000512598
-0.000500676
-0.000470852
-0.000520001
-0.000404292
-0.000513807
-0.000304472
-0.000490158
-0.000185952
-0.000502258
1.94214e-05
-0.000668979
-0.00182785
-0.000973795
-0.00632856
0.000600055
-0.00449776
0.00152427
0.00214834
0.000401071
0.0073392
0.000199654
0.00631346
0.000312126
0.00437048
0.000454831
0.00236137
0.000420636
0.00105692
0.000329909
0.000351311
0.00026272
7.51475e-07
0.000229912
-0.000155394
0.000213154
-0.000224086
0.00018609
-0.000261586
0.000130312
-0.00029202
4.14527e-05
-0.000319684
-6.50501e-05
-0.000336864
-0.000155246
-0.000330788
-0.000201154
-0.000301186
-0.000206625
-0.000267443
-0.00019579
-0.000246421
-0.000181847
-0.000238719
-0.000173319
-0.000243494
-0.000172293
-0.000256834
-0.000175866
-0.00027439
-0.000179906
-0.000293696
-0.000182831
-0.000314794
-0.000183599
-0.000337406
-0.000181055
-0.000361029
-0.00017382
-0.000385198
-0.00016042
-0.000409737
-0.000139897
-0.00043528
-0.000112974
-0.00046384
-8.16535e-05
-0.000498205
-4.28182e-05
-0.000539162
2.18633e-05
-0.000584383
0.000145867
-0.000637553
0.000375989
-0.000720059
0.00073314
-0.000859215
0.00103906
-0.000974713
-0.000903657
-0.0062708
-0.0107944
-0.00548346
-0.00316236
-0.00246794
0.00432382
-0.000934983
0.00478062
9.27744e-05
0.00334285
0.000779285
0.00167503
0.00105719
0.000779202
0.00112443
0.000284295
0.00113866
-1.32213e-05
0.00116787
-0.000184319
0.00121114
-0.000267048
0.00124776
-0.000297879
0.0012596
-0.000303514
0.00123768
-0.0002974
0.00118574
-0.000284546
0.00112062
-0.000265257
0.00106091
-0.000241043
0.00101263
-0.000218712
0.00097143
-0.000204735
0.000933388
-0.000200177
0.00089496
-0.000204552
0.000854578
-0.000215932
0.000812657
-0.000231946
0.000770368
-0.000250888
0.000728205
-0.000272119
0.000686556
-0.000295253
0.000646028
-0.000320012
0.000607565
-0.000346263
0.000572408
-0.00037413
0.00054179
-0.000404237
0.000516411
-0.000438069
0.000496576
-0.000478014
0.00048457
-0.00052684
0.000488636
-0.000588176
0.0005232
-0.000671885
0.000612607
-0.000809273
0.000825097
-0.00107154
0.00123553
-0.00138499
0.000198593
-0.007638
0.00274146
-0.00488378
0.00156977
-0.00162473
0.0015217
0.000567246
0.00115104
0.00162228
0.000620177
0.00211752
0.000284176
0.00237197
3.00791e-05
0.00251735
-0.000158336
0.00260206
-0.000268742
0.00264699
-0.000311673
0.00266402
-0.000314584
0.00265545
-0.00029462
0.00262077
-0.000262374
0.00256174
-0.000225162
0.0024852
-0.00018835
0.00240087
-0.000156345
0.00231582
-0.000133273
0.0022328
-0.00012131
0.00215261
-0.000119569
0.00207449
-0.000126011
0.00199723
-0.000138241
0.00191982
-0.000154106
0.00184151
-0.000172152
0.00176154
-0.000191729
0.00167933
-0.000212629
0.00159463
-0.000234906
0.00150757
-0.000258815
0.00141862
-0.000284805
0.00132834
-0.000313606
0.00123695
-0.000346353
0.00114383
-0.000384588
0.00104722
-0.00042997
0.000943342
-0.000484073
0.00082095
-0.000549302
0.000642825
-0.000630991
0.00030417
-0.000732758
-0.000402871
-0.000677826
-0.000234542
-0.000309712
0.00301945
0.00198772
-0.000727416
0.00300375
0.000505904
0.00369681
0.000458216
0.00422556
9.16775e-05
0.00458615
-7.61509e-05
0.00476934
-0.000152834
0.00479441
-0.000183124
0.00471321
-0.000187259
0.0045705
-0.000168677
0.00439264
-0.00013643
0.00419886
-0.000100541
0.00400489
-6.81003e-05
0.00382305
-4.30158e-05
0.00366157
-2.65467e-05
0.0035238
-1.82624e-05
0.00340787
-1.70122e-05
0.00330815
-2.12604e-05
0.00321811
-2.9202e-05
0.00313167
-3.92345e-05
0.00304397
-5.01984e-05
0.00295162
-6.14198e-05
0.00285249
-7.26871e-05
0.00274525
-8.41583e-05
0.00262914
-9.6195e-05
0.0025038
-0.000109244
0.00236906
-0.000123777
0.00222482
-0.00014027
0.00207069
-0.000159209
0.00190572
-0.000181127
0.001728
-0.000206641
0.00153468
-0.000236448
0.00132193
-0.000271148
0.00108425
-0.000311484
0.000818351
-0.000364978
0.000544586
-0.000458904
0.000216649
-0.000349805
-4.93583e-05
0.00534035
0.0041888
0.00716044
0.00638185
0.00683187
0.00722904
0.0072543
0.00710661
0.00687746
0.00661366
0.00634192
0.00608575
0.00585985
0.00566907
0.00551115
0.00537964
0.00526642
0.00516341
0.00506341
0.00496064
0.00485111
0.00473246
0.00460356
0.00446401
0.00431366
0.00415228
0.00397926
0.00379358
0.00359375
0.00337779
0.00314324
0.0028871
0.00260572
0.0022948
0.00194942
0.00156396
0.00112536
0.000593432
0.000169402
)
;

boundaryField
{
    floor
    {
        type            calculated;
        value           nonuniform List<scalar> 
29
(
0
0
0
0
0
0
0
0
0
0
0
0
0
0
0
0
0
0
0
0
2.73395e-06
7.33372e-06
1.24051e-05
1.92493e-05
2.38616e-06
3.7682e-06
1.01892e-05
1.41018e-05
1.31372e-05
)
;
    }
    ceiling
    {
        type            calculated;
        value           nonuniform List<scalar> 
43
(
0.000114697
9.6366e-05
4.81565e-05
5.14993e-05
5.62069e-05
6.13739e-05
6.67372e-05
7.18584e-05
7.6631e-05
8.0989e-05
8.47796e-05
8.7785e-05
8.97571e-05
9.05195e-05
9.00973e-05
8.87632e-05
8.69343e-05
8.50043e-05
8.32367e-05
8.17527e-05
8.05707e-05
7.9653e-05
7.89392e-05
7.83674e-05
7.78846e-05
7.74515e-05
7.70425e-05
7.66448e-05
7.62554e-05
7.58779e-05
7.55193e-05
7.51861e-05
7.48811e-05
7.46016e-05
7.43368e-05
7.40581e-05
7.36816e-05
7.3071e-05
7.42635e-05
8.10935e-05
3.28119e-05
2.59916e-05
3.20088e-05
)
;
    }
    sWall
    {
        type            calculated;
        value           uniform -9.60436e-05;
    }
    nWall
    {
        type            calculated;
        value           nonuniform List<scalar> 6(1.54086e-05 1.65836e-05 1.76929e-05 3.04303e-05 3.15869e-05 3.90286e-05);
    }
    sideWalls
    {
        type            empty;
        value           nonuniform 0();
    }
    glass1
    {
        type            calculated;
        value           nonuniform List<scalar> 9(-3.85032e-05 -0.000101523 -0.000155545 -0.000186263 -7.76759e-05 -7.68053e-05 -8.30029e-05 -8.83897e-05 -9.03786e-05);
    }
    glass2
    {
        type            calculated;
        value           nonuniform List<scalar> 2(0.000115077 0.000133469);
    }
    sun
    {
        type            calculated;
        value           uniform 0;
    }
    heatsource1
    {
        type            calculated;
        value           nonuniform List<scalar> 3(1.96509e-07 1.9657e-07 1.96695e-07);
    }
    heatsource2
    {
        type            calculated;
        value           nonuniform List<scalar> 4(4.96778e-08 4.9808e-08 0 0);
    }
    Table_master
    {
        type            calculated;
        value           nonuniform List<scalar> 9(-1.49427e-07 -1.49376e-07 -1.49284e-07 -1.49162e-07 -1.49017e-07 -1.4886e-07 -1.48708e-07 -1.4855e-07 -1.48357e-07);
    }
    Table_slave
    {
        type            calculated;
        value           nonuniform List<scalar> 9(1.48157e-07 1.48152e-07 1.48137e-07 1.4812e-07 1.48102e-07 1.48083e-07 1.48061e-07 1.48038e-07 1.47983e-07);
    }
    inlet
    {
        type            calculated;
        value           uniform 0.00173447;
    }
    outlet
    {
        type            calculated;
        value           nonuniform List<scalar> 2(-0.00535857 0.00105562);
    }
}


// ************************************************************************* //
