/*--------------------------------*- C++ -*----------------------------------*\
  =========                 |
  \\      /  F ield         | OpenFOAM: The Open Source CFD Toolbox
   \\    /   O peration     | Website:  https://openfoam.org
    \\  /    A nd           | Version:  6
     \\/     M anipulation  |
\*---------------------------------------------------------------------------*/
FoamFile
{
    version     2.0;
    format      ascii;
    class       surfaceScalarField;
    location    "100";
    object      phi;
}
// * * * * * * * * * * * * * * * * * * * * * * * * * * * * * * * * * * * * * //

dimensions      [1 0 -1 0 0 0 0];

internalField   nonuniform List<scalar> 
852
(
-0.00246608
0.00253746
-0.00244495
-2.09225e-05
-0.00241721
-2.75241e-05
-0.00249858
8.15889e-05
-0.00261651
0.000118145
-0.00272636
0.000110066
-0.00280163
7.54887e-05
-0.00282255
2.11448e-05
-0.00277136
-5.09741e-05
-0.00263049
-0.000140652
-0.00238622
-0.000244059
-0.00203069
-0.000355329
-0.00154891
-0.000481577
-0.000882061
-0.000666652
-0.000878034
-0.000918168
0.000924957
-0.000920538
2.42252e-06
-0.000665804
-0.000254691
-0.000504123
-0.000161667
-0.000527559
2.34157e-05
-0.000574472
4.68753e-05
-0.000458514
-0.000116004
-0.000235298
-0.000223246
-6.0908e-05
-0.000174404
8.17517e-05
-0.000142661
0.00021091
-0.000129144
0.000313105
-0.000102167
0.000372519
-5.93789e-05
0.00040258
-3.00161e-05
0.000490831
-8.8186e-05
0.000707782
-0.000216873
0.000984825
-0.000276946
0.000972427
1.2492e-05
0.000978972
-0.0017658
0.00448261
-0.00222307
0.000436565
-0.00241695
0.000166574
-0.00256699
0.000231844
-0.00271078
0.000262159
-0.00283377
0.000233276
-0.00291994
0.000161876
-0.00295507
5.64801e-05
-0.00292634
-7.94926e-05
-0.00282172
-0.000245064
-0.00262752
-0.000438059
-0.00232837
-0.00065429
-0.0019142
-0.000895563
-0.00142456
-0.00115611
-0.000937698
-0.00136473
0.000286128
-0.00122371
0.00028627
0.000874609
6.84417e-05
0.000584033
0.000293064
6.09505e-05
0.000268466
-0.000180654
7.99946e-05
-0.000189119
3.19133e-05
-0.000327955
0.000185707
-0.000349304
-9.46652e-05
-0.000321213
-0.000251334
-0.000295555
-0.000200032
-0.000267574
-0.000170573
-0.000254135
-0.000142476
-0.000261035
-9.51355e-05
-0.000293478
-2.67785e-05
-0.000356986
3.36848e-05
-0.000374319
-7.06629e-05
-0.000166929
-0.000424056
0.000145007
-0.000588671
0.000278954
-0.000121292
0.00127485
-0.00128873
0.00603315
-0.00193573
0.00108378
-0.00226999
0.000501054
-0.00248778
0.000449847
-0.00266427
0.000438875
-0.00280799
0.000377205
-0.00291526
0.000269368
-0.0029795
0.000120925
-0.00299449
-6.43009e-05
-0.00295611
-0.000283236
-0.00286153
-0.000532443
-0.00271021
-0.000805424
-0.00251041
-0.00109518
-0.00228835
-0.00137799
-0.00207034
-0.00158258
-0.00169938
-0.00159451
-0.00141296
-0.000795184
0.00088352
-0.000996212
0.000494179
-0.000997428
0.000269785
-0.000949764
3.24597e-05
-0.000756074
-0.000161602
-0.000165434
-0.000404718
-0.000259898
-0.000511018
-0.000710751
-0.000880926
-0.00102295
-0.00111763
-0.001144
-0.0011099
-0.00118013
-0.00111
-0.000493888
-0.00160469
-9.37051e-05
-0.00168384
-4.18994e-05
-0.000386099
-0.000941368
0.00730353
-0.00166454
0.00180718
-0.00205432
0.000891053
-0.00231551
0.000711257
-0.00250718
0.000630761
-0.00265301
0.000523253
-0.00276256
0.000379134
-0.00283872
0.000197292
-0.00288219
-2.06207e-05
-0.00289784
-0.000267389
-0.00289887
-0.000531214
-0.00290313
-0.000800974
-0.00293575
-0.00106238
-0.00302772
-0.00128584
-0.00319027
-0.00141986
-0.00339432
-0.00139029
-0.00381622
-0.000990924
-0.00335308
-0.000444484
-0.00262822
0.000158767
-0.00246112
0.000327191
-0.00237852
0.000187326
-0.00234484
-1.05227e-06
-0.00231929
-0.000186958
-0.00242577
-0.000298032
-0.00216314
-0.000262568
-0.00189489
-0.000268175
-0.00160913
-0.00028569
-0.00131344
-0.000295599
-0.00101961
-0.000293732
-0.000739338
-0.000280164
-0.00047878
-0.000260434
-0.000234425
-0.000244209
1.47407e-05
-0.000248987
-0.000107614
-0.000371172
9.60287e-05
-0.000296937
0.00022635
-0.000171775
-0.000138739
-0.000689705
0.00838001
-0.00144623
0.00256392
-0.00179149
0.00123654
-0.00205772
0.000977703
-0.00224069
0.000813954
-0.00235616
0.000638947
-0.00242615
0.000449333
-0.00246659
0.000237941
-0.00248634
-6.62277e-07
-0.00249714
-0.000256383
-0.00252099
-0.000507163
-0.00257892
-0.000742842
-0.00268714
-0.000953961
-0.00285209
-0.00112069
-0.00306534
-0.00120643
-0.00330499
-0.00115045
-0.00341739
-0.000878352
-0.00336969
-0.000492017
-0.0030648
-0.000145953
-0.00274566
8.21343e-06
-0.00253461
-2.35344e-05
-0.0024044
-0.000131053
-0.00233397
-0.000257164
-0.00228584
-0.000345926
-0.00216144
-0.000386723
-0.00200739
-0.000421966
-0.00184139
-0.00045141
-0.00167057
-0.000466132
-0.00150362
-0.000460377
-0.00134747
-0.000435992
-0.00120211
-0.000405449
-0.00105401
-0.000391946
-0.000873503
-0.000429105
-0.000687696
-0.000556578
-0.000246009
-0.000738202
0.000583835
-0.00100118
0.00173257
-0.00128703
0.00279406
-0.00106122
0.00241
0.000384361
0.00246248
-0.000659536
0.0094775
-0.00137243
0.00327704
-0.00144081
0.00130515
-0.00163363
0.00117075
-0.00182773
0.00100828
-0.00190616
0.000717601
-0.00190474
0.00044813
-0.00186793
0.00020135
-0.00182115
-4.72282e-05
-0.00178658
-0.000290749
-0.00178983
-0.000503703
-0.00184839
-0.000684065
-0.00196741
-0.000834735
-0.00213967
-0.000948221
-0.0023464
-0.000999489
-0.00254779
-0.000948864
-0.00265179
-0.000774156
-0.0026211
-0.000522511
-0.0024671
-0.000299755
-0.00227878
-0.000179904
-0.00213293
-0.000169173
-0.00204113
-0.000222623
-0.00199681
-0.000301252
-0.00197128
-0.000371207
-0.00193548
-0.000422264
-0.00189348
-0.000463698
-0.00185332
-0.000491287
-0.00182271
-0.000496437
-0.00180992
-0.000472849
-0.00182133
-0.00042425
-0.00185648
-0.00036994
-0.00190463
-0.000343435
-0.00194519
-0.000388166
-0.00195048
-0.000550919
-0.00182268
-0.000865622
-0.00144087
-0.0013826
-0.000642925
-0.00208458
0.000786988
-0.00249071
0.00157881
-0.000406976
0.0041033
-0.000912854
0.0108757
-0.00103649
0.00340089
-0.000528467
0.000797359
-0.000619508
0.00126203
-0.000976826
0.00136583
-0.00111359
0.000854595
-0.00106775
0.000402516
-0.000957782
9.16028e-05
-0.00084912
-0.000155671
-0.000778612
-0.000361039
-0.000768085
-0.000514012
-0.000828844
-0.000623088
-0.000957284
-0.000706077
-0.0011371
-0.00076819
-0.00134057
-0.000795795
-0.00152758
-0.000761639
-0.00164649
-0.000655033
-0.00166684
-0.00050194
-0.0016079
-0.000358479
-0.00151856
-0.000269023
-0.00144472
-0.000242795
-0.00140496
-0.000262146
-0.00140092
-0.000305061
-0.00142084
-0.000351033
-0.00145349
-0.000389355
-0.00149996
-0.000416956
-0.00156631
-0.000424652
-0.0016628
-0.000399652
-0.00180436
-0.000330984
-0.00200831
-0.000219978
-0.00228483
-9.30912e-05
-0.00262633
-1.60141e-06
-0.00301071
-3.44917e-06
-0.00340495
-0.00015634
-0.00376084
-0.000509389
-0.00403563
-0.00110747
-0.0041464
-0.00197344
-0.00379003
-0.00284668
-0.00169683
-0.00249973
0.00248029
0.00189154
0.0095291
0.00258609
0.00270655
0.0024753
0.000908374
0.00176615
0.00197143
0.00110984
0.00202238
0.000761878
0.0012028
0.000613129
0.000551504
0.00057338
0.000131586
0.000586069
-0.000168131
0.000588023
-0.000362765
0.000540745
-0.000466507
0.000437706
-0.000519821
0.000281251
-0.000549394
8.11807e-05
-0.000567891
-0.000138246
-0.000576138
-0.000339836
-0.000559819
-0.000488043
-0.000506596
-0.000564823
-0.000424929
-0.000581529
-0.000341541
-0.000568203
-0.000282117
-0.000554762
-0.000256001
-0.000558805
-0.000257865
-0.000586629
-0.000276994
-0.000635872
-0.000301542
-0.000702483
-0.000322487
-0.000786467
-0.000332707
-0.000889835
-0.00032101
-0.00101728
-0.00027192
-0.00117849
-0.000169488
-0.00138994
-8.23082e-06
-0.00169369
0.000210965
-0.00215635
0.000461353
-0.00282482
0.000665313
-0.00369172
0.000710859
-0.00468757
0.000486756
-0.00575613
-3.85987e-05
-0.00705764
-0.000671622
-0.00861393
-0.00129007
-0.00821632
-0.00289701
-0.00540367
0.0101417
0.0128484
0.00997637
0.00378067
0.00671166
0.00523638
0.00516223
0.00357205
0.00421037
0.0021549
0.00355628
0.00120584
0.00308093
0.000607167
0.00269246
0.000220584
0.00236658
-3.66473e-05
0.00209946
-0.000199156
0.0018678
-0.000287919
0.00164781
-0.000329159
0.00142472
-0.000344567
0.00119688
-0.000348049
0.000979522
-0.000342222
0.000796279
-0.000323109
0.000662867
-0.000291272
0.000577309
-0.000255738
0.000523404
-0.000227965
0.000481831
-0.000214181
0.00043819
-0.000213976
0.000384597
-0.000223151
0.000319041
-0.000235735
0.000242563
-0.000245755
0.000157126
-0.000247012
6.71162e-05
-0.000230735
-1.95327e-05
-0.000185
-9.26553e-05
-9.60872e-05
-0.000149935
4.93322e-05
-0.00019276
0.000254075
-0.00022235
0.000491231
-0.000241034
0.000684285
-0.000253296
0.000723408
-0.000300713
0.000534455
-0.000495746
0.000156708
-0.000840096
-0.000327006
-0.0012201
-0.000909804
-0.00140476
-0.00271209
-0.00644426
-0.00116464
0.00368577
0.00117867
0.00289335
0.00272264
0.00202833
0.00329708
0.00158071
0.00347531
0.00102785
0.00350521
0.000577517
0.00345278
0.000273255
0.00333923
7.71559e-05
0.00318834
-4.80175e-05
0.00302119
-0.000120517
0.00284696
-0.000154669
0.00266691
-0.000164261
0.00248013
-0.000161011
0.00229075
-0.000152587
0.0021104
-0.000142496
0.00195198
-0.000132594
0.00182157
-0.000125065
0.00171604
-0.000122169
0.00162704
-0.000124919
0.00154596
-0.000132631
0.00146647
-0.000143406
0.00138553
-0.00015453
0.00130295
-0.000162918
0.00122121
-0.000165013
0.00114646
-0.000155723
0.00108897
-0.000127242
0.00106194
-6.87915e-05
0.00108138
3.01711e-05
0.00116757
0.000168156
0.00132931
0.000329762
0.00154898
0.000464894
0.00177621
0.00049646
0.00194292
0.00036802
0.00201842
8.14851e-05
0.00204277
-0.000351095
0.00211745
-0.00098421
0.00170388
-0.00229826
-0.00466191
-0.0011458
0.00482477
0.000768178
0.000979688
0.00196476
0.000832038
0.00284963
0.000696112
0.00341337
0.000464391
0.00371633
0.000274828
0.00385056
0.000139292
0.00388178
4.62089e-05
0.00384765
-1.36145e-05
0.00377449
-4.70769e-05
0.00368095
-6.08541e-05
0.00357795
-6.09808e-05
0.0034704
-5.31782e-05
0.00335996
-4.18681e-05
0.00324813
-3.03894e-05
0.00313743
-2.16171e-05
0.00303049
-1.78388e-05
0.00292869
-2.00915e-05
0.00283188
-2.78197e-05
0.00273885
-3.93216e-05
0.00264823
-5.25125e-05
0.00255936
-6.53837e-05
0.00247291
-7.61919e-05
0.00239151
-8.33396e-05
0.00232073
-8.46706e-05
0.00226985
-7.60839e-05
0.00225152
-5.01869e-05
0.0022859
-3.93958e-06
0.00240004
5.42959e-05
0.0026003
0.000129775
0.00286556
0.000199902
0.00313827
0.000224022
0.00333732
0.000169242
0.00338863
3.04522e-05
0.00325655
-0.000218747
0.00285196
-0.000579349
0.00177554
-0.00122157
-0.00279114
-0.0033014
-0.00371393
0.00110203
0.00207603
0.00290359
0.00359616
0.0040577
0.00433022
0.00446767
0.00451245
0.00449783
0.0044502
0.00438931
0.00432884
0.00427678
0.00423669
0.0042088
0.00419044
0.0041767
0.00416158
0.00413966
0.00410719
0.00406251
0.00400593
0.00393953
0.00386696
0.00379401
0.00373059
0.00369393
0.00370432
0.00377362
0.00391898
0.00413496
0.00437554
0.00456186
0.00461005
0.00440977
0.00384973
0.0026481
)
;

boundaryField
{
    floor
    {
        type            calculated;
        value           nonuniform List<scalar> 
29
(
0
0
0
0
0
0
0
0
0
0
0
0
0
0
0
0
0
0
0
0
-6.44757e-06
-1.68021e-05
-2.26797e-05
-2.05126e-05
-3.83529e-06
-6.72974e-06
-1.80357e-05
-1.98159e-05
-1.85272e-05
)
;
    }
    ceiling
    {
        type            calculated;
        value           nonuniform List<scalar> 
43
(
1.41521e-05
1.15173e-05
9.16956e-06
6.05223e-06
4.83887e-06
3.88565e-06
3.18002e-06
2.62922e-06
2.16562e-06
1.74499e-06
1.32273e-06
8.57644e-07
3.48276e-07
-2.07822e-07
-8.135e-07
-1.47202e-06
-2.18671e-06
-2.95975e-06
-3.79011e-06
-4.67212e-06
-5.59592e-06
-6.54958e-06
-7.52167e-06
-8.50265e-06
-9.48487e-06
-1.0461e-05
-1.14215e-05
-1.23508e-05
-1.32261e-05
-1.40235e-05
-1.47087e-05
-1.52849e-05
-1.57859e-05
-1.62677e-05
-1.67978e-05
-1.74525e-05
-1.81896e-05
-1.90373e-05
-1.96673e-05
-2.04433e-05
1.46674e-06
3.34222e-08
7.15491e-06
)
;
    }
    sWall
    {
        type            calculated;
        value           uniform -0.000120249;
    }
    nWall
    {
        type            calculated;
        value           nonuniform List<scalar> 6(-5.21014e-05 -6.14334e-05 -7.324e-05 -7.82102e-05 -9.49757e-05 -0.000122336);
    }
    sideWalls
    {
        type            empty;
        value           nonuniform 0();
    }
    glass1
    {
        type            calculated;
        value           nonuniform List<scalar> 9(-7.11738e-05 -0.000179142 -0.000261613 -0.000328819 -0.00038659 -0.000437761 -0.000485166 -0.000544748 -0.000613918);
    }
    glass2
    {
        type            calculated;
        value           nonuniform List<scalar> 2(-0.000332009 -0.000363918);
    }
    sun
    {
        type            calculated;
        value           uniform 0;
    }
    heatsource1
    {
        type            calculated;
        value           nonuniform List<scalar> 3(2.05455e-07 2.05619e-07 2.05915e-07);
    }
    heatsource2
    {
        type            calculated;
        value           nonuniform List<scalar> 4(5.17461e-08 5.19192e-08 0 0);
    }
    Table_master
    {
        type            calculated;
        value           nonuniform List<scalar> 9(-1.56438e-07 -1.56428e-07 -1.56332e-07 -1.5621e-07 -1.56069e-07 -1.55934e-07 -1.55825e-07 -1.55726e-07 -1.5558e-07);
    }
    Table_slave
    {
        type            calculated;
        value           nonuniform List<scalar> 9(1.54699e-07 1.54793e-07 1.54881e-07 1.54974e-07 1.55071e-07 1.55166e-07 1.55256e-07 1.55336e-07 1.55365e-07);
    }
    inlet
    {
        type            calculated;
        value           uniform 0.00125993;
    }
    outlet
    {
        type            calculated;
        value           nonuniform List<scalar> 2(0.00340785 0.000401373);
    }
}


// ************************************************************************* //
