/*--------------------------------*- C++ -*----------------------------------*\
  =========                 |
  \\      /  F ield         | OpenFOAM: The Open Source CFD Toolbox
   \\    /   O peration     | Website:  https://openfoam.org
    \\  /    A nd           | Version:  6
     \\/     M anipulation  |
\*---------------------------------------------------------------------------*/
FoamFile
{
    version     2.0;
    format      ascii;
    class       volScalarField;
    location    "100";
    object      T;
}
// * * * * * * * * * * * * * * * * * * * * * * * * * * * * * * * * * * * * * //

dimensions      [0 0 0 1 0 0 0];

internalField   nonuniform List<scalar> 
459
(
307.777
307.628
307.622
307.619
307.615
307.61
307.599
307.587
307.574
307.562
307.548
307.533
307.516
307.494
307.462
307.206
307.24
307.256
307.268
307.279
307.291
307.306
307.324
307.346
307.374
307.408
307.451
307.504
307.573
307.653
307.709
307.64
307.463
307.377
307.921
307.763
307.767
307.766
307.757
307.746
307.729
307.711
307.693
307.674
307.654
307.63
307.602
307.569
307.531
307.491
307.433
307.245
307.268
307.288
307.305
307.32
307.333
307.348
307.373
307.409
307.46
307.526
307.608
307.703
307.813
307.93
308.025
307.997
307.861
307.648
308.117
307.964
307.989
307.983
307.949
307.899
307.858
307.834
307.815
307.796
307.774
307.745
307.707
307.66
307.602
307.539
307.486
307.286
307.323
307.355
307.389
307.429
307.443
307.348
307.376
307.428
307.508
307.616
307.746
307.889
308.039
308.196
308.333
308.347
308.313
308.027
308.83
308.661
308.597
308.512
308.405
308.163
308.013
307.969
307.954
307.944
307.928
307.904
307.866
307.812
307.739
307.648
307.549
307.468
307.452
307.552
307.649
307.734
307.806
307.873
307.938
307.994
308.053
308.115
308.182
308.253
308.327
308.405
308.483
308.545
308.592
308.618
308.616
312.613
311.188
310.282
309.594
309.068
308.641
308.252
308.124
308.103
308.108
308.112
308.108
308.09
308.055
308.003
307.935
307.859
307.795
307.763
307.813
307.878
307.945
308.003
308.056
308.107
308.158
308.211
308.269
308.332
308.4
308.472
308.548
308.626
308.696
308.759
308.809
308.85
308.892
308.939
309.001
312.9
312.514
311.495
310.488
309.648
309.006
308.514
308.287
308.251
308.271
308.302
308.326
308.337
308.33
308.302
308.254
308.194
308.14
308.111
308.115
308.139
308.173
308.21
308.247
308.286
308.327
308.371
308.42
308.473
308.532
308.596
308.666
308.738
308.809
308.872
308.924
308.966
309.003
309.043
309.103
312.917
312.759
312.048
311.027
310.01
309.225
308.695
308.443
308.398
308.431
308.491
308.551
308.597
308.624
308.627
308.606
308.565
308.518
308.481
308.461
308.456
308.462
308.476
308.494
308.516
308.542
308.572
308.607
308.646
308.691
308.742
308.798
308.859
308.921
308.978
309.027
309.066
309.099
309.128
309.17
312.908
312.82
312.266
311.249
310.079
309.274
308.8
308.601
308.567
308.613
308.705
308.802
308.885
308.945
308.98
308.987
308.969
308.935
308.897
308.864
308.839
308.823
308.813
308.81
308.811
308.818
308.829
308.845
308.866
308.893
308.925
308.963
309.007
309.053
309.099
309.141
309.177
309.202
309.213
309.227
312.906
312.89
312.901
311.095
310.005
309.311
308.925
308.818
308.828
308.908
309.031
309.154
309.257
309.334
309.384
309.407
309.406
309.385
309.352
309.315
309.278
309.244
309.215
309.19
309.169
309.154
309.143
309.136
309.135
309.139
309.149
309.164
309.184
309.209
309.236
309.263
309.284
309.295
309.286
309.278
315.587
311.397
310.124
309.533
309.311
309.292
309.349
309.475
309.6
309.706
309.789
309.846
309.881
309.893
309.886
309.863
309.828
309.785
309.738
309.691
309.645
309.602
309.561
309.524
309.491
309.461
309.436
309.415
309.399
309.388
309.382
309.38
309.382
309.385
309.384
309.372
309.331
309.267
314.453
312.116
311.315
310.82
310.581
310.492
310.485
310.491
310.497
310.498
310.492
310.477
310.453
310.422
310.383
310.337
310.285
310.229
310.17
310.11
310.051
309.991
309.934
309.878
309.824
309.773
309.725
309.681
309.64
309.604
309.572
309.544
309.52
309.497
309.473
309.441
309.391
309.322
310.658
310.75
312.406
312.35
312.176
311.996
311.883
311.794
311.71
311.63
311.551
311.471
311.39
311.307
311.221
311.133
311.045
310.956
310.868
310.782
310.696
310.612
310.53
310.448
310.368
310.289
310.212
310.136
310.062
309.99
309.921
309.854
309.79
309.73
309.673
309.619
309.565
309.507
309.426
309.311
)
;

boundaryField
{
    floor
    {
        type            wallHeatTransfer;
        Tinf            uniform 305.2;
        alphaWall       uniform 0.24;
        value           nonuniform List<scalar> 
29
(
307.135
306.693
306.748
306.785
306.809
306.828
306.847
306.867
306.89
306.916
306.948
306.987
307.034
307.093
307.169
307.26
307.326
307.265
307.107
307.004
307.004
307.314
307.686
308.237
307.135
306.693
306.782
306.9
307.17
)
;
    }
    ceiling
    {
        type            wallHeatTransfer;
        Tinf            uniform 303.2;
        alphaWall       uniform 0.24;
        value           nonuniform List<scalar> 
43
(
309.989
310.18
312.114
312.038
311.837
311.626
311.482
311.362
311.251
311.145
311.044
310.948
310.855
310.768
310.685
310.606
310.528
310.452
310.375
310.297
310.219
310.141
310.062
309.985
309.908
309.832
309.757
309.684
309.613
309.544
309.477
309.412
309.351
309.292
309.237
309.185
309.135
309.08
308.994
308.841
312.64
312.676
314.231
)
;
    }
    sWall
    {
        type            wallHeatTransfer;
        Tinf            uniform 315.2;
        alphaWall       uniform 0.36;
        value           uniform 311.244;
    }
    nWall
    {
        type            wallHeatTransfer;
        Tinf            uniform 307.2;
        alphaWall       uniform 0.36;
        value           nonuniform List<scalar> 6(308.764 308.893 308.981 309.045 309.114 309.076);
    }
    sideWalls
    {
        type            empty;
    }
    glass1
    {
        type            wallHeatTransfer;
        Tinf            uniform 315.2;
        alphaWall       uniform 4.3;
        value           nonuniform List<scalar> 9(313.277 312.765 312.571 312.648 313.858 313.913 313.845 313.765 313.676);
    }
    glass2
    {
        type            wallHeatTransfer;
        Tinf            uniform 307.2;
        alphaWall       uniform 4.3;
        value           nonuniform List<scalar> 2(308.165 308.193);
    }
    sun
    {
        type            wallHeatTransfer;
        Tinf            uniform 305.2;
        alphaWall       uniform 0.24;
        value           nonuniform List<scalar> 
14
(
307.427
307.313
307.297
307.294
307.291
307.286
307.276
307.264
307.252
307.242
307.232
307.219
307.203
307.178
)
;
    }
    heatsource1
    {
        type            fixedGradient;
        gradient        uniform 0;
    }
    heatsource2
    {
        type            fixedGradient;
        gradient        uniform 0;
    }
    Table_master
    {
        type            zeroGradient;
    }
    Table_slave
    {
        type            zeroGradient;
    }
    inlet
    {
        type            fixedValue;
        value           uniform 288.15;
    }
    outlet
    {
        type            zeroGradient;
    }
}


// ************************************************************************* //
