/*--------------------------------*- C++ -*----------------------------------*\
  =========                 |
  \\      /  F ield         | OpenFOAM: The Open Source CFD Toolbox
   \\    /   O peration     | Website:  https://openfoam.org
    \\  /    A nd           | Version:  6
     \\/     M anipulation  |
\*---------------------------------------------------------------------------*/
FoamFile
{
    version     2.0;
    format      ascii;
    class       volScalarField;
    location    "100";
    object      T;
}
// * * * * * * * * * * * * * * * * * * * * * * * * * * * * * * * * * * * * * //

dimensions      [0 0 0 1 0 0 0];

internalField   nonuniform List<scalar> 
458
(
304.49
304.201
304.2
304.213
304.226
304.236
304.246
304.254
304.261
304.266
304.269
304.269
304.266
304.26
304.251
303.803
303.787
303.779
303.777
303.777
303.779
303.782
303.787
303.794
303.806
303.825
303.851
303.883
303.918
303.948
303.943
303.903
303.874
304.711
304.295
304.268
304.283
304.301
304.317
304.332
304.343
304.351
304.357
304.356
304.349
304.333
304.308
304.269
304.23
304.184
304.128
303.81
303.791
303.767
303.753
303.746
303.743
303.745
303.75
303.761
303.784
303.819
303.868
303.926
303.986
304.034
304.018
303.963
303.88
304.911
304.391
304.335
304.35
304.376
304.399
304.421
304.439
304.453
304.461
304.462
304.452
304.43
304.392
304.339
304.273
304.203
304.146
303.843
303.838
303.825
303.81
303.793
303.729
303.728
303.736
303.754
303.789
303.844
303.918
304.005
304.098
304.185
304.174
304.156
304.157
305.094
304.496
304.406
304.417
304.45
304.483
304.515
304.543
304.566
304.582
304.588
304.58
304.557
304.514
304.452
304.37
304.27
304.158
304.063
304.008
304.064
304.118
304.163
304.19
304.209
304.216
304.223
304.233
304.245
304.261
304.282
304.307
304.337
304.361
304.386
304.41
304.429
305.261
304.61
304.493
304.489
304.526
304.569
304.613
304.653
304.689
304.716
304.731
304.73
304.711
304.674
304.619
304.547
304.464
304.379
304.303
304.25
304.257
304.281
304.301
304.314
304.319
304.323
304.329
304.338
304.353
304.373
304.4
304.433
304.469
304.506
304.544
304.58
304.61
304.617
304.565
304.521
305.409
304.743
304.623
304.593
304.617
304.664
304.716
304.769
304.819
304.859
304.882
304.889
304.878
304.849
304.802
304.739
304.665
304.589
304.52
304.469
304.442
304.436
304.436
304.434
304.43
304.427
304.425
304.428
304.438
304.455
304.482
304.517
304.559
304.601
304.64
304.671
304.689
304.686
304.6
304.514
305.54
304.931
304.851
304.803
304.779
304.803
304.85
304.905
304.966
305.011
305.04
305.052
305.049
305.028
304.992
304.939
304.875
304.804
304.737
304.681
304.64
304.613
304.594
304.578
304.563
304.549
304.537
304.529
304.526
304.532
304.548
304.576
304.614
304.656
304.695
304.726
304.741
304.734
304.683
304.513
305.739
305.287
305.267
305.208
305.125
305.087
305.089
305.112
305.147
305.18
305.204
305.217
305.218
305.207
305.182
305.143
305.09
305.025
304.961
304.902
304.853
304.812
304.779
304.75
304.724
304.699
304.676
304.655
304.637
304.624
304.621
304.629
304.651
304.685
304.724
304.763
304.798
304.828
304.852
304.879
306.01
305.834
305.947
305.84
305.669
305.549
305.48
305.444
305.422
305.407
305.402
305.401
305.398
305.389
305.37
305.34
305.299
305.248
305.191
305.134
305.081
305.032
304.989
304.95
304.914
304.879
304.846
304.813
304.782
304.753
304.73
304.716
304.711
304.717
304.731
304.752
304.776
304.802
304.834
304.925
307.733
306.286
305.935
305.795
305.722
305.68
305.656
305.641
305.627
305.615
305.602
305.587
305.566
305.539
305.504
305.462
305.414
305.362
305.31
305.259
305.21
305.164
305.121
305.078
305.037
304.996
304.956
304.917
304.88
304.848
304.822
304.806
304.8
304.804
304.815
304.829
304.847
304.873
307.392
306.542
306.269
306.107
306.012
305.954
305.915
305.887
305.862
305.837
305.811
305.784
305.755
305.723
305.688
305.648
305.605
305.559
305.51
305.461
305.412
305.364
305.316
305.27
305.224
305.179
305.135
305.091
305.047
305.006
304.968
304.937
304.914
304.899
304.892
304.888
304.887
304.896
308.117
307.913
307.374
307.023
306.719
306.518
306.392
306.305
306.237
306.181
306.132
306.084
306.039
305.994
305.95
305.906
305.862
305.818
305.774
305.73
305.685
305.64
305.596
305.551
305.506
305.462
305.417
305.373
305.328
305.283
305.238
305.193
305.15
305.109
305.07
305.034
305
304.968
304.935
304.92
)
;

boundaryField
{
    floor
    {
        type            wallHeatTransfer;
        Tinf            uniform 305.2;
        alphaWall       uniform 0.24;
        value           nonuniform List<scalar> 
36
(
304.373
304.143
304.117
304.151
304.201
304.229
304.242
304.241
304.226
304.203
304.18
304.163
304.154
304.153
304.158
304.164
304.157
304.135
304.144
304.144
304.134
304.301
304.513
304.673
304.632
304.601
304.373
304.347
304.314
304.299
304.143
304.299
304.108
304.275
304.066
304.198
)
;
    }
    ceiling
    {
        type            wallHeatTransfer;
        Tinf            uniform 303.2;
        alphaWall       uniform 0.24;
        value           nonuniform List<scalar> 
43
(
307.741
307.638
307.227
306.878
306.567
306.354
306.215
306.114
306.035
305.968
305.908
305.854
305.804
305.757
305.712
305.671
305.63
305.591
305.552
305.512
305.472
305.431
305.39
305.349
305.307
305.266
305.224
305.183
305.141
305.1
305.058
305.017
304.977
304.938
304.901
304.866
304.833
304.8
304.771
304.743
305.886
305.73
307.281
)
;
    }
    sWall
    {
        type            wallHeatTransfer;
        Tinf            uniform 315.2;
        alphaWall       uniform 0.36;
        value           uniform 308.901;
    }
    nWall
    {
        type            wallHeatTransfer;
        Tinf            uniform 307.2;
        alphaWall       uniform 0.36;
        value           nonuniform List<scalar> 6(304.968 304.956 304.949 305.13 305.161 305.254);
    }
    sideWalls
    {
        type            empty;
    }
    glass1
    {
        type            wallHeatTransfer;
        Tinf            uniform 315.2;
        alphaWall       uniform 4.3;
        value           nonuniform List<scalar> 9(312.572 311.545 310.936 310.521 310.235 310.024 309.88 309.973 310.213);
    }
    glass2
    {
        type            wallHeatTransfer;
        Tinf            uniform 307.2;
        alphaWall       uniform 4.3;
        value           nonuniform List<scalar> 2(306.301 306.275);
    }
    sun
    {
        type            wallHeatTransfer;
        Tinf            uniform 305.2;
        alphaWall       uniform 0.24;
        value           nonuniform List<scalar> 
14
(
304.592
304.342
304.36
304.369
304.376
304.381
304.386
304.39
304.393
304.395
304.395
304.392
304.388
304.382
)
;
    }
    Table_master
    {
        type            zeroGradient;
    }
    Table_slave
    {
        type            zeroGradient;
    }
    inlet
    {
        type            fixedValue;
        value           uniform 295.15;
    }
    outlet
    {
        type            zeroGradient;
    }
}


// ************************************************************************* //
