// -*- C++ -*-
// File generated by PyFoam - sorry for the ugliness

FoamFile
{
 version 2.0;
 format ascii;
 class volScalarField;
 location "100";
 object T;
}

dimensions [ 0 0 0 1 0 0 0 ];

internalField nonuniform List<scalar> 459
(
  301.594
  301.2
  301.195
  301.21
  301.224
  301.237
  301.249
  301.26
  301.269
  301.277
  301.28
  301.279
  301.275
  301.267
  301.26
  300.746
  300.722
  300.714
  300.686
  300.647
  300.604
  300.56
  300.528
  300.529
  300.534
  300.537
  300.546
  300.562
  300.586
  300.636
  300.713
  300.742
  300.737
  300.747
  301.879
  301.304
  301.261
  301.279
  301.301
  301.321
  301.34
  301.355
  301.368
  301.376
  301.377
  301.369
  301.351
  301.322
  301.28
  301.229
  301.098
  300.77
  300.765
  300.753
  300.713
  300.655
  300.56
  300.461
  300.428
  300.431
  300.445
  300.47
  300.507
  300.558
  300.643
  300.751
  300.842
  300.824
  300.771
  300.755
  302.138
  301.428
  301.344
  301.361
  301.391
  301.42
  301.446
  301.468
  301.485
  301.495
  301.494
  301.48
  301.45
  301.403
  301.339
  301.265
  301.198
  300.9
  300.876
  300.879
  300.889
  300.897
  300.857
  300.461
  300.407
  300.434
  300.492
  300.574
  300.665
  300.75
  300.829
  300.916
  300.998
  300.925
  300.894
  300.876
  302.374
  301.56
  301.434
  301.445
  301.485
  301.526
  301.563
  301.595
  301.619
  301.635
  301.636
  301.619
  301.582
  301.524
  301.444
  301.348
  301.243
  301.16
  301.099
  301.138
  301.192
  301.244
  301.277
  301.296
  301.311
  301.312
  301.313
  301.315
  301.317
  301.32
  301.323
  301.326
  301.326
  301.295
  301.274
  301.259
  301.269
  302.591
  301.701
  301.536
  301.532
  301.58
  301.633
  301.684
  301.731
  301.769
  301.794
  301.802
  301.79
  301.757
  301.704
  301.636
  301.559
  301.481
  301.416
  301.371
  301.366
  301.39
  301.412
  301.421
  301.424
  301.424
  301.423
  301.425
  301.43
  301.439
  301.453
  301.471
  301.493
  301.519
  301.543
  301.576
  301.621
  301.674
  301.7
  301.653
  301.614
  302.779
  301.859
  301.679
  301.641
  301.68
  301.742
  301.808
  301.871
  301.926
  301.965
  301.982
  301.976
  301.948
  301.901
  301.838
  301.766
  301.695
  301.634
  301.59
  301.567
  301.558
  301.553
  301.548
  301.54
  301.533
  301.526
  301.524
  301.528
  301.541
  301.565
  301.597
  301.637
  301.682
  301.728
  301.774
  301.815
  301.845
  301.85
  301.737
  301.642
  302.942
  302.088
  301.946
  301.862
  301.841
  301.883
  301.948
  302.02
  302.092
  302.142
  302.168
  302.169
  302.149
  302.109
  302.051
  301.983
  301.913
  301.849
  301.797
  301.759
  301.732
  301.712
  301.695
  301.677
  301.659
  301.642
  301.629
  301.624
  301.631
  301.654
  301.693
  301.742
  301.793
  301.84
  301.879
  301.909
  301.926
  301.922
  301.868
  301.649
  303.198
  302.562
  302.483
  302.361
  302.234
  302.179
  302.186
  302.226
  302.282
  302.327
  302.352
  302.36
  302.349
  302.321
  302.272
  302.211
  302.144
  302.078
  302.019
  301.97
  301.93
  301.898
  301.869
  301.841
  301.813
  301.784
  301.756
  301.731
  301.716
  301.719
  301.744
  301.786
  301.835
  301.883
  301.926
  301.963
  301.997
  302.034
  302.072
  302.125
  303.551
  303.298
  303.373
  303.183
  302.931
  302.759
  302.661
  302.611
  302.581
  302.562
  302.556
  302.552
  302.543
  302.523
  302.49
  302.443
  302.385
  302.323
  302.261
  302.204
  302.155
  302.111
  302.072
  302.036
  301.999
  301.96
  301.92
  301.878
  301.839
  301.81
  301.796
  301.798
  301.815
  301.837
  301.855
  301.866
  301.89
  301.928
  301.99
  302.159
  305.627
  303.658
  303.201
  303.015
  302.916
  302.86
  302.827
  302.806
  302.787
  302.772
  302.755
  302.734
  302.706
  302.669
  302.623
  302.569
  302.512
  302.455
  302.401
  302.35
  302.303
  302.257
  302.213
  302.168
  302.12
  302.07
  302.017
  301.965
  301.919
  301.885
  301.866
  301.858
  301.856
  301.857
  301.866
  301.885
  301.92
  301.993
  305.059
  303.898
  303.489
  303.291
  303.184
  303.122
  303.082
  303.054
  303.03
  303.007
  302.983
  302.957
  302.928
  302.895
  302.857
  302.813
  302.765
  302.713
  302.66
  302.608
  302.556
  302.505
  302.455
  302.405
  302.353
  302.299
  302.24
  302.177
  302.112
  302.053
  302.004
  301.968
  301.944
  301.929
  301.926
  301.933
  301.952
  302.017
  304.955
  304.942
  304.968
  304.303
  303.946
  303.729
  303.595
  303.504
  303.438
  303.386
  303.342
  303.3
  303.261
  303.223
  303.186
  303.149
  303.112
  303.074
  303.034
  302.993
  302.95
  302.906
  302.86
  302.812
  302.763
  302.713
  302.66
  302.606
  302.548
  302.487
  302.42
  302.349
  302.279
  302.216
  302.165
  302.126
  302.094
  302.066
  302.042
  302.059
)
;

boundaryField
{
  floor
  {
    type wallHeatTransfer;
    Tinf uniform 305.2;
    alphaWall uniform 0.24;
    value nonuniform List<scalar> 29
(
  301.767
  301.634
  301.562
  301.549
  301.658
  301.833
  301.911
  301.925
  301.929
  301.962
  301.989
  301.994
  301.985
  301.965
  301.879
  301.684
  301.552
  301.512
  301.529
  301.598
  301.598
  301.494
  301.476
  301.656
  301.767
  301.634
  301.563
  301.422
  301.574
)
;
  }
  ceiling
  {
    type wallHeatTransfer;
    Tinf uniform 303.2;
    alphaWall uniform 0.24;
    value nonuniform List<scalar> 43
(
  304.871
  304.873
  304.913
  304.266
  303.916
  303.704
  303.573
  303.486
  303.422
  303.373
  303.331
  303.292
  303.256
  303.221
  303.187
  303.154
  303.121
  303.087
  303.052
  303.016
  302.978
  302.939
  302.898
  302.856
  302.813
  302.768
  302.721
  302.671
  302.618
  302.562
  302.499
  302.431
  302.363
  302.303
  302.255
  302.22
  302.192
  302.168
  302.148
  302.169
  303.537
  303.294
  305.012
)
;
  }
  sWall
  {
    type wallHeatTransfer;
    Tinf uniform 315.2;
    alphaWall uniform 0.36;
    value uniform 305.668;
  }
  nWall
  {
    type wallHeatTransfer;
    Tinf uniform 307.2;
    alphaWall uniform 0.36;
    value nonuniform List<scalar> 6
(
  302.385
  302.389
  302.402
  302.547
  302.623
  302.77
)
;
  }
  sideWalls
  {
    type empty;
  }
  glass1
  {
    type wallHeatTransfer;
    Tinf uniform 315.2;
    alphaWall uniform 4.3;
    value nonuniform List<scalar> 9
(
  311.659
  310.29
  309.5
  308.984
  308.639
  308.389
  308.215
  308.339
  308.652
)
;
  }
  glass2
  {
    type wallHeatTransfer;
    Tinf uniform 307.2;
    alphaWall uniform 4.3;
    value nonuniform List<scalar> 2
(
  305.166
  305.092
)
;
  }
  sun
  {
    type wallHeatTransfer;
    Tinf uniform 305.2;
    alphaWall uniform 0.24;
    value nonuniform List<scalar> 14
(
  302.077
  301.728
  301.811
  301.817
  301.815
  301.811
  301.807
  301.802
  301.797
  301.791
  301.784
  301.777
  301.77
  301.765
)
;
  }
  heatsource1
  {
    type fixedGradient;
    gradient uniform 0;
  }
  heatsource2
  {
    type fixedGradient;
    gradient uniform 0;
  }
  Table_master
  {
    type zeroGradient;
  }
  Table_slave
  {
    type zeroGradient;
  }
  inlet
  {
    type fixedValue;
    value uniform 299.15;
  }
  outlet
  {
    type zeroGradient;
  }
} 	// ************************************************************************* //

