/*--------------------------------*- C++ -*----------------------------------*\
  =========                 |
  \\      /  F ield         | OpenFOAM: The Open Source CFD Toolbox
   \\    /   O peration     | Website:  https://openfoam.org
    \\  /    A nd           | Version:  6
     \\/     M anipulation  |
\*---------------------------------------------------------------------------*/
FoamFile
{
    version     2.0;
    format      ascii;
    class       volScalarField;
    location    "100";
    object      T;
}
// * * * * * * * * * * * * * * * * * * * * * * * * * * * * * * * * * * * * * //

dimensions      [0 0 0 1 0 0 0];

internalField   nonuniform List<scalar> 
460
(
308.297
308.097
308.092
308.098
308.103
308.107
308.11
308.112
308.114
308.114
308.114
308.114
308.113
308.11
308.105
308.098
308.089
308.077
307.706
307.761
307.779
307.793
307.805
307.816
307.825
307.834
307.843
307.852
307.863
307.874
307.886
307.894
307.884
307.824
308.473
308.183
308.156
308.158
308.164
308.169
308.173
308.177
308.179
308.18
308.18
308.178
308.175
308.169
308.159
308.145
308.125
308.096
308.061
308.024
307.965
307.782
307.8
307.828
307.845
307.857
307.867
307.874
307.881
307.889
307.897
307.907
307.92
307.935
307.949
307.943
307.894
308.636
308.249
308.196
308.195
308.202
308.209
308.216
308.222
308.226
308.229
308.231
308.23
308.227
308.221
308.209
308.191
308.164
308.127
308.083
308.037
307.979
307.812
307.83
307.855
307.87
307.88
307.887
307.892
307.898
307.905
307.914
307.927
307.944
307.966
307.988
307.983
307.947
308.793
308.324
308.237
308.227
308.236
308.246
308.255
308.265
308.273
308.28
308.285
308.287
308.286
308.282
308.271
308.25
308.216
308.168
308.107
308.037
307.981
307.838
307.86
307.881
307.894
307.899
307.9
307.903
307.907
307.914
307.924
307.939
307.962
307.994
308.027
308.021
308.001
308.946
308.41
308.286
308.259
308.268
308.281
308.294
308.308
308.321
308.334
308.344
308.353
308.358
308.358
308.35
308.331
308.295
308.24
308.164
308.073
307.979
307.905
307.886
307.918
307.946
307.972
307.997
308.018
308.018
308.019
308.021
308.025
308.032
308.042
308.055
308.065
308.058
308.044
309.098
308.514
308.352
308.296
308.3
308.315
308.333
308.351
308.37
308.389
308.407
308.424
308.438
308.447
308.449
308.439
308.412
308.365
308.298
308.218
308.133
308.059
308.011
308.02
308.037
308.057
308.075
308.086
308.088
308.088
308.088
308.089
308.093
308.099
308.108
308.11
308.099
308.071
308.037
308.026
309.256
308.652
308.449
308.351
308.337
308.352
308.372
308.395
308.419
308.444
308.469
308.494
308.519
308.54
308.555
308.559
308.546
308.511
308.456
308.384
308.307
308.234
308.175
308.155
308.15
308.155
308.161
308.164
308.164
308.162
308.161
308.16
308.16
308.163
308.169
308.17
308.159
308.135
308.106
308.079
309.4
308.786
308.583
308.459
308.406
308.405
308.424
308.448
308.475
308.502
308.531
308.561
308.594
308.626
308.655
308.674
308.677
308.658
308.618
308.56
308.492
308.423
308.364
308.32
308.294
308.28
308.272
308.267
308.261
308.256
308.251
308.247
308.244
308.243
308.243
308.24
308.226
308.2
308.169
308.12
309.565
309.01
308.837
308.724
308.627
308.567
308.55
308.56
308.579
308.601
308.626
308.653
308.683
308.715
308.747
308.773
308.786
308.782
308.761
308.721
308.668
308.609
308.552
308.503
308.464
308.434
308.413
308.396
308.383
308.371
308.36
308.351
308.342
308.335
308.328
308.318
308.3
308.269
308.225
308.156
309.829
309.567
309.468
309.342
309.195
309.083
309.003
308.947
308.907
308.879
308.861
308.848
308.841
308.846
308.859
308.872
308.88
308.878
308.866
308.842
308.806
308.763
308.717
308.673
308.632
308.596
308.565
308.539
308.517
308.496
308.478
308.461
308.445
308.43
308.415
308.396
308.37
308.33
308.269
308.178
309.325
309.254
309.191
309.141
309.104
309.076
309.055
309.039
309.026
309.016
309.006
308.995
308.985
308.974
308.961
308.944
308.924
308.898
308.867
308.833
308.798
308.762
308.727
308.695
308.664
308.635
308.608
308.582
308.558
308.535
308.512
308.488
308.461
308.426
308.375
308.295
308.17
309.879
309.618
309.41
309.313
309.265
309.23
309.202
309.179
309.161
309.145
309.131
309.118
309.105
309.092
309.078
309.063
309.047
309.029
309.011
308.991
308.97
308.948
308.923
308.897
308.868
308.839
308.808
308.776
308.744
308.712
308.68
308.649
308.617
308.585
308.552
308.516
308.472
308.408
308.294
308.073
)
;

boundaryField
{
    floor
    {
        type            wallHeatTransfer;
        Tinf            uniform 305.2;
        alphaWall       uniform 0.24;
        value           nonuniform List<scalar> 
36
(
307.717
307.058
307.093
307.167
307.213
307.251
307.283
307.313
307.341
307.37
307.399
307.431
307.464
307.5
307.53
307.525
307.368
307.065
307.491
307.592
307.69
307.77
307.774
307.738
307.61
307.736
307.7
307.56
306.853
307.447
307.136
307.598
307.208
307.636
307.294
307.536
)
;
    }
    ceiling
    {
        type            wallHeatTransfer;
        Tinf            uniform 303.2;
        alphaWall       uniform 0.24;
        value           nonuniform List<scalar> 
47
(
309.334
309.048
308.865
308.86
308.819
308.772
308.729
308.691
308.659
308.632
308.608
308.589
308.573
308.562
308.557
308.558
308.563
308.567
308.567
308.56
308.547
308.529
308.506
308.481
308.454
308.425
308.395
308.365
308.335
308.306
308.276
308.246
308.217
308.186
308.155
308.12
308.077
308.015
307.895
307.644
309.511
309.306
309.196
309.334
309.048
308.993
308.865
)
;
    }
    sWall
    {
        type            wallHeatTransfer;
        Tinf            uniform 315.2;
        alphaWall       uniform 0.36;
        value           uniform 310.455;
    }
    nWall
    {
        type            wallHeatTransfer;
        Tinf            uniform 307.2;
        alphaWall       uniform 0.36;
        value           nonuniform List<scalar> 5(307.9 307.962 308.01 308.067 307.962);
    }
    sideWalls
    {
        type            empty;
    }
    glass1
    {
        type            wallHeatTransfer;
        Tinf            uniform 315.2;
        alphaWall       uniform 4.3;
        value           nonuniform List<scalar> 10(313.671 313.118 312.766 312.51 312.325 312.2 312.123 312.057 312.071 312.292);
    }
    glass2
    {
        type            wallHeatTransfer;
        Tinf            uniform 307.2;
        alphaWall       uniform 4.3;
        value           nonuniform List<scalar> 2(307.589 307.606);
    }
    sun
    {
        type            wallHeatTransfer;
        Tinf            uniform 305.2;
        alphaWall       uniform 0.24;
        value           nonuniform List<scalar> 
17
(
307.796
307.639
307.591
307.606
307.623
307.64
307.654
307.668
307.679
307.69
307.7
307.709
307.718
307.724
307.727
307.727
307.723
)
;
    }
    Table_master
    {
        type            zeroGradient;
    }
    Table_slave
    {
        type            zeroGradient;
    }
    inlet
    {
        type            fixedValue;
        value           nonuniform 0();
    }
    outlet
    {
        type            zeroGradient;
    }
}


// ************************************************************************* //
