/*--------------------------------*- C++ -*----------------------------------*\
  =========                 |
  \\      /  F ield         | OpenFOAM: The Open Source CFD Toolbox
   \\    /   O peration     | Website:  https://openfoam.org
    \\  /    A nd           | Version:  6
     \\/     M anipulation  |
\*---------------------------------------------------------------------------*/
FoamFile
{
    version     2.0;
    format      ascii;
    class       volVectorField;
    location    "100";
    object      U;
}
// * * * * * * * * * * * * * * * * * * * * * * * * * * * * * * * * * * * * * //

dimensions      [0 1 -1 0 0 0 0];

internalField   nonuniform List<vector> 
458
(
(0.0994705 0.0605307 0)
(-0.125822 -0.00205316 0)
(-0.0973303 -0.000287876 0)
(-0.101067 0.00197371 0)
(-0.106353 0.00230729 0)
(-0.111732 0.00171433 0)
(-0.116187 0.000565441 0)
(-0.119066 -0.00103975 0)
(-0.119832 -0.00310707 0)
(-0.117888 -0.00573436 0)
(-0.11219 -0.00912729 0)
(-0.100968 -0.0136156 0)
(-0.0831068 -0.0202088 0)
(-0.0641367 -0.030937 0)
(-0.0649903 -0.0459631 0)
(0.0131237 0.00992083 0)
(-0.0275474 -0.00223077 0)
(-0.0225456 -0.00287367 0)
(-0.0202616 -0.000954028 0)
(-0.0208639 0.000492522 0)
(-0.0221179 0.000541175 0)
(-0.0228056 5.09532e-05 0)
(-0.0226109 -0.000635389 0)
(-0.0215156 -0.0013952 0)
(-0.01986 -0.00203275 0)
(-0.018457 -0.00226616 0)
(-0.0178554 -0.00194451 0)
(-0.0172812 -0.00176832 0)
(-0.0151681 -0.00362208 0)
(-0.0103152 -0.00888047 0)
(0.000944265 -0.0144822 0)
(0.0151458 -0.0119582 0)
(-0.0152319 0.00327997 0)
(0.287077 0.133244 0)
(-0.149348 0.00927987 0)
(-0.0900778 0.00450041 0)
(-0.0991415 0.00778877 0)
(-0.105573 0.00876472 0)
(-0.111357 0.00807403 0)
(-0.116095 0.00630035 0)
(-0.119467 0.0036604 0)
(-0.121107 0.000182416 0)
(-0.120561 -0.00419746 0)
(-0.117405 -0.00954296 0)
(-0.110913 -0.0160432 0)
(-0.101215 -0.0244711 0)
(-0.0910285 -0.0359792 0)
(-0.0818299 -0.0472664 0)
(-0.0591951 -0.0400282 0)
(-0.022378 -0.0380203 0)
(-0.0133158 0.0338284 0)
(0.0801633 0.0245895 0)
(-0.0157826 0.0104803 0)
(-0.0207468 0.00381368 0)
(-0.0239635 0.00313435 0)
(-0.025736 0.00338787 0)
(-0.0262377 0.0028144 0)
(-0.025974 0.00215588 0)
(-0.0253043 0.00132449 0)
(-0.0246707 0.000485519 0)
(-0.0241521 0.000174858 0)
(-0.0239594 0.000833637 0)
(-0.0242732 0.0021282 0)
(-0.0249799 0.00199643 0)
(-0.0250888 -0.00261614 0)
(-0.0220568 -0.0108807 0)
(-0.0137942 -0.0131382 0)
(-0.012524 -0.00610444 0)
(-0.073985 0.0147977 0)
(0.439792 0.203097 0)
(-0.189672 0.0317614 0)
(-0.0753543 0.0150089 0)
(-0.0913329 0.0147 0)
(-0.0988306 0.0144726 0)
(-0.104546 0.0126839 0)
(-0.109088 0.00961174 0)
(-0.112462 0.00539714 0)
(-0.114558 8.09318e-05 0)
(-0.115129 -0.00632004 0)
(-0.114086 -0.0138823 0)
(-0.111443 -0.0227732 0)
(-0.107802 -0.0332991 0)
(-0.104422 -0.045106 0)
(-0.100314 -0.0549129 0)
(-0.0912487 -0.0579254 0)
(-0.0845451 -0.0613852 0)
(-0.102689 -0.0552954 0)
(0.0392786 0.0439229 0)
(-0.0416088 0.0196712 0)
(-0.0377868 0.0106897 0)
(-0.0366241 0.00442458 0)
(-0.0343353 -0.000350506 0)
(-0.0260978 -0.00400433 0)
(-0.0282095 -0.00651676 0)
(-0.0291653 -0.00704564 0)
(-0.030717 -0.00718948 0)
(-0.0325052 -0.00705078 0)
(-0.0341115 -0.00697258 0)
(-0.035653 -0.00750458 0)
(-0.0376337 -0.00950247 0)
(-0.038496 -0.014076 0)
(-0.0328596 -0.0177324 0)
(-0.0244738 -0.0140885 0)
(-0.0257551 -0.00985198 0)
(-0.0786325 -0.00683667 0)
(0.560332 0.260289 0)
(-0.227463 0.0589595 0)
(-0.0578705 0.0281142 0)
(-0.0803568 0.022995 0)
(-0.0891562 0.0207401 0)
(-0.0940791 0.0175991 0)
(-0.0975965 0.0134434 0)
(-0.100038 0.00821239 0)
(-0.101578 0.00186537 0)
(-0.102256 -0.00557815 0)
(-0.102312 -0.0139983 0)
(-0.102301 -0.02339 0)
(-0.103027 -0.0337112 0)
(-0.105317 -0.0441251 0)
(-0.108836 -0.0523341 0)
(-0.11318 -0.0561929 0)
(-0.122767 -0.0543615 0)
(-0.140398 -0.0347767 0)
(-0.13843 0.0182456 0)
(-0.0936093 0.0328721 0)
(-0.097533 0.02009 0)
(-0.0908154 0.00943176 0)
(-0.0932637 0.00163584 0)
(-0.0953485 -0.00402585 0)
(-0.0943648 -0.00564722 0)
(-0.0897265 -0.00613743 0)
(-0.0839971 -0.00704969 0)
(-0.0774206 -0.00769903 0)
(-0.0704074 -0.00816717 0)
(-0.06316 -0.00856629 0)
(-0.0552664 -0.00917747 0)
(-0.0457722 -0.0107069 0)
(-0.0354813 -0.0143432 0)
(-0.031246 -0.0206463 0)
(-0.0243944 -0.0208585 0)
(-0.0128551 -0.0217369 0)
(-0.0380633 -0.0214962 0)
(0.652649 0.306923 0)
(-0.257383 0.088517 0)
(-0.0417425 0.0416368 0)
(-0.0662582 0.0316508 0)
(-0.0769159 0.0262713 0)
(-0.0806586 0.0211268 0)
(-0.0822834 0.0156231 0)
(-0.0826566 0.00947908 0)
(-0.082248 0.00250912 0)
(-0.081363 -0.00524554 0)
(-0.0808214 -0.0134321 0)
(-0.0813351 -0.0219191 0)
(-0.0836498 -0.0306406 0)
(-0.0882202 -0.0389852 0)
(-0.0948426 -0.0457156 0)
(-0.10331 -0.0498832 0)
(-0.114044 -0.0502874 0)
(-0.124337 -0.0418625 0)
(-0.127003 -0.0187227 0)
(-0.116944 0.00604421 0)
(-0.104147 0.0122715 0)
(-0.094637 0.00828449 0)
(-0.0904083 0.00306701 0)
(-0.0881378 -0.00165911 0)
(-0.0862462 -0.00451508 0)
(-0.0837229 -0.00660228 0)
(-0.0807556 -0.00803872 0)
(-0.0774726 -0.00896796 0)
(-0.0739778 -0.00951227 0)
(-0.0703128 -0.00987348 0)
(-0.0662759 -0.0105187 0)
(-0.0614903 -0.0124475 0)
(-0.0560619 -0.0171897 0)
(-0.0502543 -0.0254189 0)
(-0.0417677 -0.0330609 0)
(-0.026246 -0.0419284 0)
(-0.0052118 -0.0503827 0)
(0.0379113 -0.0474423 0)
(0.0926367 -0.00771343 0)
(-0.0352666 0.0592664 0)
(0.708706 0.348449 0)
(-0.280412 0.114686 0)
(-0.0303989 0.0480184 0)
(-0.0442806 0.0403259 0)
(-0.057893 0.0322036 0)
(-0.0618796 0.0231956 0)
(-0.0615371 0.0154158 0)
(-0.0592321 0.00818534 0)
(-0.0557898 0.000803515 0)
(-0.052354 -0.00669403 0)
(-0.0502676 -0.0137175 0)
(-0.0501102 -0.0203322 0)
(-0.0524474 -0.0267025 0)
(-0.0574159 -0.032576 0)
(-0.0646717 -0.0372044 0)
(-0.0737098 -0.0396544 0)
(-0.083751 -0.0384179 0)
(-0.0921743 -0.0310687 0)
(-0.0950393 -0.017816 0)
(-0.090821 -0.00463201 0)
(-0.0832868 0.00144803 0)
(-0.0763039 0.00138438 0)
(-0.0718786 -0.00117834 0)
(-0.069553 -0.00425179 0)
(-0.068334 -0.00669593 0)
(-0.0675088 -0.00861338 0)
(-0.0668765 -0.0100672 0)
(-0.0664162 -0.0110511 0)
(-0.0661738 -0.0116215 0)
(-0.0662186 -0.012007 0)
(-0.066564 -0.0127988 0)
(-0.067189 -0.0151396 0)
(-0.0681409 -0.0205193 0)
(-0.0690136 -0.0297191 0)
(-0.0678587 -0.042138 0)
(-0.0621717 -0.0585293 0)
(-0.0511466 -0.076867 0)
(-0.0358919 -0.0863944 0)
(0.0367634 -0.0339935 0)
(-0.1035 0.0924254 0)
(0.725018 0.386926 0)
(-0.287978 0.111914 0)
(-0.0114723 0.0202648 0)
(0.00398675 0.0441023 0)
(-0.0150795 0.04298 0)
(-0.0258634 0.0246102 0)
(-0.0262738 0.0115614 0)
(-0.0228962 0.00279246 0)
(-0.0169174 -0.0046922 0)
(-0.012757 -0.0108532 0)
(-0.0102339 -0.0156615 0)
(-0.00996586 -0.0195517 0)
(-0.0123502 -0.023101 0)
(-0.0173846 -0.0264767 0)
(-0.0246667 -0.0293192 0)
(-0.0335084 -0.0308833 0)
(-0.0427992 -0.0299047 0)
(-0.0505329 -0.0249708 0)
(-0.0542782 -0.0167393 0)
(-0.0533269 -0.00860133 0)
(-0.0496234 -0.00412516 0)
(-0.0458248 -0.00307683 0)
(-0.0432697 -0.0038932 0)
(-0.0420259 -0.00549898 0)
(-0.0417684 -0.00714589 0)
(-0.0421615 -0.00857302 0)
(-0.0430406 -0.00963722 0)
(-0.0443663 -0.0102143 0)
(-0.0462117 -0.0102546 0)
(-0.0487887 -0.00990981 0)
(-0.0524884 -0.00974911 0)
(-0.0578944 -0.0109572 0)
(-0.0656055 -0.0151374 0)
(-0.0758623 -0.0235366 0)
(-0.0881034 -0.0367356 0)
(-0.101121 -0.0548965 0)
(-0.111548 -0.0745282 0)
(-0.112981 -0.080864 0)
(-0.111824 -0.0356869 0)
(-0.172965 0.145094 0)
(0.82025 0.406355 0)
(-0.105429 0.083598 0)
(0.06937 -0.0470578 0)
(0.112935 0.0132814 0)
(0.0796932 0.0350809 0)
(0.0528877 0.0195477 0)
(0.0449658 0.003265 0)
(0.0429009 -0.00635258 0)
(0.0420624 -0.0120558 0)
(0.0416399 -0.0157428 0)
(0.0405842 -0.0178961 0)
(0.0384027 -0.0190462 0)
(0.034677 -0.0198366 0)
(0.0291963 -0.0206861 0)
(0.0220216 -0.0216207 0)
(0.0135546 -0.0222547 0)
(0.00465907 -0.021749 0)
(-0.00328951 -0.0190594 0)
(-0.00824165 -0.0144411 0)
(-0.00992274 -0.00962752 0)
(-0.00937824 -0.00644063 0)
(-0.00822078 -0.00511328 0)
(-0.00745648 -0.00505276 0)
(-0.00739867 -0.00569212 0)
(-0.00803011 -0.00656901 0)
(-0.00922077 -0.00739866 0)
(-0.010858 -0.00795871 0)
(-0.0128614 -0.0080336 0)
(-0.0152044 -0.00743296 0)
(-0.017985 -0.00607869 0)
(-0.0215692 -0.00418637 0)
(-0.026766 -0.00250085 0)
(-0.0348877 -0.00240408 0)
(-0.0487995 -0.00619402 0)
(-0.0707405 -0.0164846 0)
(-0.101044 -0.0343778 0)
(-0.138281 -0.0588327 0)
(-0.176593 -0.0859115 0)
(-0.234655 -0.108671 0)
(-0.474688 -0.117554 0)
(0.953487 0.386101 0)
(0.452642 0.231184 0)
(0.345001 0.148823 0)
(0.341604 0.141081 0)
(0.246551 0.114879 0)
(0.183102 0.0753 0)
(0.15586 0.0427709 0)
(0.140173 0.0207915 0)
(0.125581 0.00595781 0)
(0.112131 -0.0038735 0)
(0.101587 -0.00941548 0)
(0.0931054 -0.011987 0)
(0.085706 -0.0128643 0)
(0.0785936 -0.0129754 0)
(0.0712057 -0.0128385 0)
(0.0633365 -0.0126081 0)
(0.0552663 -0.012096 0)
(0.0477646 -0.0109253 0)
(0.041879 -0.00893979 0)
(0.0380771 -0.00664686 0)
(0.0359813 -0.00482946 0)
(0.0347442 -0.00379257 0)
(0.0336912 -0.003432 0)
(0.0324753 -0.00353111 0)
(0.0309672 -0.00385839 0)
(0.029158 -0.00421685 0)
(0.0270957 -0.00442154 0)
(0.0248758 -0.0042778 0)
(0.0226452 -0.00358554 0)
(0.0205855 -0.00217642 0)
(0.0188684 -1.82677e-05 0)
(0.0177899 0.00268755 0)
(0.0169573 0.00540208 0)
(0.0162458 0.00707153 0)
(0.015159 0.00584532 0)
(0.0127741 0.000380572 0)
(0.010287 -0.00766454 0)
(0.015486 -0.0196859 0)
(0.0718713 -0.0770385 0)
(-0.34734 -0.189041 0)
(-1.24191 0.0919964 0)
(0.160382 0.151855 0)
(0.107772 0.108493 0)
(0.113289 0.0715034 0)
(0.132271 0.0442826 0)
(0.142738 0.0264906 0)
(0.14395 0.0159686 0)
(0.14115 0.0103803 0)
(0.13664 0.00757773 0)
(0.131744 0.0062993 0)
(0.1266 0.0061382 0)
(0.121272 0.00658174 0)
(0.115724 0.00714558 0)
(0.109877 0.00747101 0)
(0.103747 0.00744264 0)
(0.0975912 0.00720633 0)
(0.091899 0.00699616 0)
(0.0871051 0.00684952 0)
(0.0833034 0.00660196 0)
(0.0802639 0.00614637 0)
(0.0776791 0.00549908 0)
(0.075306 0.00473654 0)
(0.0729864 0.00395791 0)
(0.070637 0.00326336 0)
(0.0682394 0.00275732 0)
(0.0658429 0.00255627 0)
(0.0635832 0.0027809 0)
(0.0616804 0.00352278 0)
(0.0604195 0.00474001 0)
(0.0601182 0.00605485 0)
(0.0609112 0.00692789 0)
(0.0629317 0.00610652 0)
(0.0661564 0.00127847 0)
(0.06871 -0.00868725 0)
(0.0703176 -0.0233611 0)
(0.0723137 -0.042764 0)
(0.106995 -0.0779454 0)
(-0.0829917 -0.13701 0)
(-0.573218 0.100386 0)
(0.218399 0.0613317 0)
(0.10039 0.0338461 0)
(0.103773 0.0188575 0)
(0.132234 0.000815953 0)
(0.151896 -0.0168494 0)
(0.160625 -0.0324288 0)
(0.163456 -0.0461052 0)
(0.163381 -0.0577911 0)
(0.161197 -0.0666253 0)
(0.157442 -0.073108 0)
(0.152695 -0.0771761 0)
(0.147501 -0.0789724 0)
(0.142254 -0.0788623 0)
(0.137176 -0.0772991 0)
(0.132402 -0.0747844 0)
(0.128072 -0.0718272 0)
(0.124319 -0.0688938 0)
(0.121162 -0.0663302 0)
(0.118476 -0.0642873 0)
(0.116076 -0.0627471 0)
(0.113799 -0.0615998 0)
(0.111532 -0.0606997 0)
(0.109223 -0.0598973 0)
(0.106879 -0.05905 0)
(0.104575 -0.0580167 0)
(0.102438 -0.0567548 0)
(0.100688 -0.0551737 0)
(0.0995925 -0.0533407 0)
(0.099232 -0.0514027 0)
(0.0996629 -0.0501908 0)
(0.100885 -0.0502777 0)
(0.101849 -0.0517964 0)
(0.100856 -0.055176 0)
(0.0959983 -0.0604914 0)
(0.084779 -0.0673718 0)
(0.102951 -0.0785179 0)
(-0.141423 -0.089343 0)
(0.610719 0.186377 0)
(0.181415 -0.227172 0)
(-0.261839 0.155647 0)
(0.167862 0.0928077 0)
(0.142866 0.0954252 0)
(0.126987 0.109069 0)
(0.14253 0.121015 0)
(0.157701 0.135009 0)
(0.164005 0.151481 0)
(0.164572 0.169279 0)
(0.16293 0.186884 0)
(0.160745 0.202174 0)
(0.158674 0.214699 0)
(0.156998 0.22356 0)
(0.155871 0.228448 0)
(0.155317 0.2297 0)
(0.15524 0.227981 0)
(0.155498 0.224109 0)
(0.155939 0.218942 0)
(0.156421 0.213275 0)
(0.156801 0.207742 0)
(0.156943 0.202754 0)
(0.15675 0.198484 0)
(0.156183 0.194925 0)
(0.15526 0.191958 0)
(0.154043 0.189401 0)
(0.152619 0.18705 0)
(0.151098 0.184688 0)
(0.149608 0.182204 0)
(0.14826 0.179411 0)
(0.147148 0.176273 0)
(0.146264 0.172802 0)
(0.145436 0.169516 0)
(0.143928 0.166142 0)
(0.14053 0.162053 0)
(0.1336 0.157089 0)
(0.120962 0.151297 0)
(0.100059 0.145407 0)
(0.117163 0.133873 0)
(-0.221901 0.154526 0)
)
;

boundaryField
{
    floor
    {
        type            noSlip;
    }
    ceiling
    {
        type            noSlip;
    }
    sWall
    {
        type            noSlip;
    }
    nWall
    {
        type            noSlip;
    }
    sideWalls
    {
        type            empty;
    }
    glass1
    {
        type            noSlip;
    }
    glass2
    {
        type            noSlip;
    }
    sun
    {
        type            noSlip;
    }
    Table_master
    {
        type            noSlip;
    }
    Table_slave
    {
        type            noSlip;
    }
    inlet
    {
        type            fixedValue;
        value           uniform (0.0382683 -0.092388 0);
    }
    outlet
    {
        type            zeroGradient;
    }
}


// ************************************************************************* //
