// -*- C++ -*-
// File generated by PyFoam - sorry for the ugliness

FoamFile
{
 version 2.0;
 format ascii;
 class volVectorField;
 location "100";
 object U;
}

dimensions [ 0 1 -1 0 0 0 0 ];

internalField nonuniform List<vector> 459
(
  (0.115874 0.0662398 0)
  (-0.138515 -0.00404581 0)
  (-0.102381 -0.001463 0)
  (-0.104862 0.00151957 0)
  (-0.109596 0.00229436 0)
  (-0.114745 0.00186711 0)
  (-0.118881 0.000718975 0)
  (-0.121067 -0.000972534 0)
  (-0.120569 -0.00315893 0)
  (-0.116617 -0.0058941 0)
  (-0.108222 -0.0091815 0)
  (-0.0940581 -0.0131095 0)
  (-0.0738797 -0.0182846 0)
  (-0.0547321 -0.0258377 0)
  (-0.063539 -0.0338541 0)
  (0.0182795 0.0153473 0)
  (-0.0451041 -0.00984026 0)
  (-0.0324849 -0.0103529 0)
  (-0.0263497 -0.0055266 0)
  (-0.0224102 -0.000448484 0)
  (-0.0240343 6.75546e-05 0)
  (-0.0217055 -0.00450092 0)
  (-0.0150196 -0.00679317 0)
  (-0.00662491 -0.00510932 0)
  (0.000498564 -0.00382595 0)
  (0.00643037 -0.00336517 0)
  (0.0110639 -0.00279889 0)
  (0.0148379 -0.00152427 0)
  (0.0172061 0.000364451 0)
  (0.0192225 0.000342064 0)
  (0.024999 -0.00663264 0)
  (0.0333611 -0.0137315 0)
  (0.0488877 -0.00822565 0)
  (-0.00944347 0.0181494 0)
  (0.32526 0.146566 0)
  (-0.166609 0.00650225 0)
  (-0.0970878 0.0018182 0)
  (-0.1065 0.00652473 0)
  (-0.1131 0.0082293 0)
  (-0.11905 0.00758277 0)
  (-0.123667 0.00537043 0)
  (-0.126377 0.00194191 0)
  (-0.126598 -0.00260394 0)
  (-0.12381 -0.00824974 0)
  (-0.117346 -0.0148846 0)
  (-0.106392 -0.0224046 0)
  (-0.0905857 -0.0311763 0)
  (-0.0713875 -0.041963 0)
  (-0.0522547 -0.0531425 0)
  (-0.0325333 -0.0582697 0)
  (0.030389 0.00458336 0)
  (0.136154 0.0255189 0)
  (0.0396969 0.0147077 0)
  (0.00189701 0.00454868 0)
  (-0.00943518 0.00062414 0)
  (-0.00872075 0.00438254 0)
  (-0.0115379 0.00717876 0)
  (-0.0127336 -0.00458039 0)
  (-0.0146514 -0.00979829 0)
  (-0.0133735 -0.00753939 0)
  (-0.0119465 -0.00643347 0)
  (-0.0112374 -0.00584529 0)
  (-0.0112573 -0.00415562 0)
  (-0.0120061 -0.00104261 0)
  (-0.0141464 0.00108701 0)
  (-0.0143733 -0.00470082 0)
  (-0.0104422 -0.0191086 0)
  (-0.00417383 -0.0254123 0)
  (0.0237305 -0.00883536 0)
  (-0.0936974 0.0495219 0)
  (0.493692 0.223917 0)
  (-0.212137 0.031775 0)
  (-0.0829269 0.0136563 0)
  (-0.101689 0.0141971 0)
  (-0.110568 0.0146972 0)
  (-0.117512 0.0127621 0)
  (-0.122962 0.00883314 0)
  (-0.126713 0.00323221 0)
  (-0.128447 -0.00387537 0)
  (-0.127868 -0.0124226 0)
  (-0.124887 -0.0223403 0)
  (-0.119363 -0.0334027 0)
  (-0.111488 -0.0454331 0)
  (-0.102001 -0.057675 0)
  (-0.0921537 -0.0670284 0)
  (-0.0847597 -0.0677829 0)
  (-0.0871912 -0.057588 0)
  (0.072508 0.0247076 0)
  (-0.0481618 0.0185475 0)
  (-0.0453088 0.0142331 0)
  (-0.0420571 0.00528611 0)
  (-0.0371938 -0.00221107 0)
  (-0.0320598 -0.00804998 0)
  (0.00691093 -0.00522362 0)
  (-0.0165125 -0.0125826 0)
  (-0.0263193 -0.0113623 0)
  (-0.0341205 -0.0100324 0)
  (-0.041038 -0.00824226 0)
  (-0.0462578 -0.00642983 0)
  (-0.0491977 -0.00555331 0)
  (-0.0503991 -0.00646289 0)
  (-0.0499916 -0.0110541 0)
  (-0.039351 -0.016522 0)
  (-0.0489212 -0.00500963 0)
  (-0.0788669 0.0129691 0)
  (-0.169492 0.0327789 0)
  (0.626515 0.28746 0)
  (-0.254241 0.0627118 0)
  (-0.0648919 0.0296755 0)
  (-0.0926704 0.0245462 0)
  (-0.103823 0.0228449 0)
  (-0.110881 0.0193153 0)
  (-0.116333 0.0138901 0)
  (-0.12033 0.00668096 0)
  (-0.122923 -0.00218095 0)
  (-0.123929 -0.0124439 0)
  (-0.124046 -0.0237972 0)
  (-0.123866 -0.0357726 0)
  (-0.124267 -0.0477027 0)
  (-0.126367 -0.058048 0)
  (-0.131801 -0.0633272 0)
  (-0.143503 -0.0570536 0)
  (-0.160767 -0.0279545 0)
  (-0.156453 0.0352712 0)
  (-0.111973 0.0239199 0)
  (-0.11478 0.0185537 0)
  (-0.103389 0.00913788 0)
  (-0.10128 -0.000889815 0)
  (-0.100782 -0.00940592 0)
  (-0.102405 -0.0150511 0)
  (-0.0988257 -0.0116359 0)
  (-0.0870005 -0.0112937 0)
  (-0.0749748 -0.0120651 0)
  (-0.062486 -0.0126548 0)
  (-0.049888 -0.0128958 0)
  (-0.0377137 -0.01272 0)
  (-0.0262202 -0.0121635 0)
  (-0.0146979 -0.0113704 0)
  (-0.00147417 -0.0107974 0)
  (-0.00487696 -0.0172276 0)
  (0.0032806 -0.00853579 0)
  (0.0232318 -0.00680547 0)
  (-0.119945 -0.0127289 0)
  (0.729129 0.33956 0)
  (-0.288355 0.0969044 0)
  (-0.0471657 0.0472084 0)
  (-0.0796567 0.0360766 0)
  (-0.0930164 0.0309113 0)
  (-0.0990162 0.0251725 0)
  (-0.10282 0.0181494 0)
  (-0.10513 0.00968928 0)
  (-0.106384 -0.00020815 0)
  (-0.106666 -0.0111516 0)
  (-0.107148 -0.0224018 0)
  (-0.108687 -0.0334348 0)
  (-0.112096 -0.0437172 0)
  (-0.117978 -0.0523179 0)
  (-0.126642 -0.057714 0)
  (-0.137282 -0.0575986 0)
  (-0.145695 -0.0477612 0)
  (-0.146861 -0.0238149 0)
  (-0.13745 -0.00127469 0)
  (-0.124303 0.00714762 0)
  (-0.112344 0.00367513 0)
  (-0.105325 -0.00263842 0)
  (-0.101428 -0.009179 0)
  (-0.0991556 -0.0136428 0)
  (-0.095408 -0.0143257 0)
  (-0.0893189 -0.0156275 0)
  (-0.0823761 -0.0167922 0)
  (-0.0751022 -0.0174926 0)
  (-0.0678507 -0.0175004 0)
  (-0.0609616 -0.0168312 0)
  (-0.054537 -0.0158455 0)
  (-0.0482099 -0.0152443 0)
  (-0.0414539 -0.0159851 0)
  (-0.0339962 -0.0199452 0)
  (-0.0204448 -0.0221875 0)
  (0.0107533 -0.0251818 0)
  (0.0395963 -0.032943 0)
  (0.0898388 -0.0434192 0)
  (0.137748 -0.0102069 0)
  (-0.0479324 0.0588234 0)
  (0.792381 0.386389 0)
  (-0.315808 0.128121 0)
  (-0.0343582 0.057986 0)
  (-0.0590227 0.0482724 0)
  (-0.0756891 0.0389995 0)
  (-0.0810819 0.0292629 0)
  (-0.0821925 0.0198995 0)
  (-0.0812314 0.0102139 0)
  (-0.0790727 -0.000294938 0)
  (-0.0769205 -0.0112029 0)
  (-0.0760438 -0.0213519 0)
  (-0.0772828 -0.0304043 0)
  (-0.0811077 -0.0381685 0)
  (-0.0875375 -0.0440278 0)
  (-0.0961524 -0.046713 0)
  (-0.105542 -0.0444608 0)
  (-0.112503 -0.0359992 0)
  (-0.11401 -0.0232391 0)
  (-0.109501 -0.0112085 0)
  (-0.101644 -0.00500313 0)
  (-0.0940649 -0.00493126 0)
  (-0.0889628 -0.00809981 0)
  (-0.0862204 -0.0124311 0)
  (-0.0849185 -0.0160229 0)
  (-0.0836528 -0.0181223 0)
  (-0.0819128 -0.0199093 0)
  (-0.0800648 -0.021266 0)
  (-0.0784659 -0.0218406 0)
  (-0.077487 -0.0214 0)
  (-0.0774774 -0.0200755 0)
  (-0.0785567 -0.0185548 0)
  (-0.0804919 -0.0180387 0)
  (-0.0826982 -0.0201105 0)
  (-0.083864 -0.0263271 0)
  (-0.0802787 -0.0369438 0)
  (-0.0679508 -0.054247 0)
  (-0.049228 -0.0789271 0)
  (-0.0276349 -0.0950755 0)
  (0.0937316 -0.0142356 0)
  (-0.0997771 0.126269 0)
  (0.809623 0.430462 0)
  (-0.326049 0.128171 0)
  (-0.0140109 0.0333156 0)
  (-0.0094769 0.0586477 0)
  (-0.0356304 0.0514726 0)
  (-0.0475667 0.030813 0)
  (-0.0478405 0.0166348 0)
  (-0.0441547 0.00570034 0)
  (-0.0381545 -0.00479196 0)
  (-0.0340751 -0.0142328 0)
  (-0.0323228 -0.0218706 0)
  (-0.0334775 -0.0279757 0)
  (-0.0376768 -0.0330089 0)
  (-0.0445159 -0.0368448 0)
  (-0.0531413 -0.0385861 0)
  (-0.0620029 -0.0368634 0)
  (-0.0688747 -0.0310426 0)
  (-0.0718524 -0.0227554 0)
  (-0.0707058 -0.0149568 0)
  (-0.0670929 -0.0103404 0)
  (-0.0632701 -0.00933826 0)
  (-0.0607283 -0.0107392 0)
  (-0.0598268 -0.0132908 0)
  (-0.0602515 -0.0158354 0)
  (-0.0614 -0.0178393 0)
  (-0.0630319 -0.0193817 0)
  (-0.0653303 -0.0201747 0)
  (-0.0686431 -0.0197801 0)
  (-0.0735468 -0.0179159 0)
  (-0.080827 -0.0148878 0)
  (-0.0911259 -0.0118865 0)
  (-0.104663 -0.0105695 0)
  (-0.120534 -0.0124558 0)
  (-0.137306 -0.0192275 0)
  (-0.153563 -0.0331879 0)
  (-0.167631 -0.0568136 0)
  (-0.174914 -0.0865713 0)
  (-0.168341 -0.0992533 0)
  (-0.149019 -0.0357039 0)
  (-0.185738 0.233352 0)
  (0.912504 0.453469 0)
  (-0.118908 0.105682 0)
  (0.0729663 -0.0251269 0)
  (0.112196 0.037265 0)
  (0.0677865 0.0504183 0)
  (0.0349589 0.02549 0)
  (0.0259564 0.0049541 0)
  (0.0242527 -0.00665313 0)
  (0.0254903 -0.0142089 0)
  (0.0261225 -0.0196196 0)
  (0.0248693 -0.0231593 0)
  (0.0215378 -0.025443 0)
  (0.0159052 -0.0272092 0)
  (0.00814922 -0.0287485 0)
  (-0.00127067 -0.0296757 0)
  (-0.0106881 -0.028824 0)
  (-0.0184079 -0.0255465 0)
  (-0.0232679 -0.0206098 0)
  (-0.025083 -0.0157311 0)
  (-0.0248523 -0.0124168 0)
  (-0.0240178 -0.0111257 0)
  (-0.0236773 -0.0114314 0)
  (-0.0243256 -0.0126706 0)
  (-0.0259964 -0.0141484 0)
  (-0.0284861 -0.0154054 0)
  (-0.0316811 -0.0161621 0)
  (-0.0356199 -0.0159308 0)
  (-0.0404259 -0.0140452 0)
  (-0.0464506 -0.0098705 0)
  (-0.0543299 -0.0032382 0)
  (-0.0644045 0.0051852 0)
  (-0.0800207 0.0129347 0)
  (-0.103973 0.0156886 0)
  (-0.13773 0.00848701 0)
  (-0.180485 -0.0116682 0)
  (-0.227929 -0.0433532 0)
  (-0.269216 -0.0794131 0)
  (-0.308423 -0.113524 0)
  (-0.381341 -0.131911 0)
  (-0.67925 -0.112108 0)
  (1.0555 0.413343 0)
  (0.506866 0.244626 0)
  (0.400173 0.176576 0)
  (0.376207 0.174422 0)
  (0.263083 0.140506 0)
  (0.191849 0.0916022 0)
  (0.160675 0.051843 0)
  (0.142039 0.0245714 0)
  (0.12447 0.00569508 0)
  (0.108117 -0.0069566 0)
  (0.0954314 -0.0142125 0)
  (0.0850339 -0.0177635 0)
  (0.0755485 -0.0192207 0)
  (0.0660939 -0.0197132 0)
  (0.0562835 -0.0198414 0)
  (0.0464864 -0.0195086 0)
  (0.0376505 -0.0182644 0)
  (0.0307441 -0.0161042 0)
  (0.0261243 -0.0136913 0)
  (0.0233294 -0.0118181 0)
  (0.0214798 -0.0108752 0)
  (0.0197857 -0.0108026 0)
  (0.0177638 -0.0113241 0)
  (0.0152213 -0.0120758 0)
  (0.0121681 -0.0127268 0)
  (0.00868303 -0.0129664 0)
  (0.0049003 -0.012342 0)
  (0.00106717 -0.0102156 0)
  (-0.00247193 -0.00584577 0)
  (-0.00491578 0.00121029 0)
  (-0.0067772 0.0110594 0)
  (-0.00817118 0.022824 0)
  (-0.00968785 0.0335426 0)
  (-0.0121056 0.0389862 0)
  (-0.0151518 0.0354654 0)
  (-0.0172503 0.0213747 0)
  (-0.0298291 -0.00422168 0)
  (-0.0157962 -0.0428527 0)
  (-0.00040673 -0.147502 0)
  (-0.544683 -0.295456 0)
  (-1.35075 0.147345 0)
  (0.183975 0.196318 0)
  (0.110931 0.138358 0)
  (0.120002 0.0910651 0)
  (0.141206 0.0554489 0)
  (0.15133 0.0310239 0)
  (0.151334 0.015083 0)
  (0.14706 0.00477104 0)
  (0.140701 -0.00205323 0)
  (0.133689 -0.00621978 0)
  (0.1263 -0.00843967 0)
  (0.118648 -0.00941558 0)
  (0.110709 -0.00974371 0)
  (0.102504 -0.0097639 0)
  (0.0943729 -0.00956019 0)
  (0.0869314 -0.00916971 0)
  (0.0806796 -0.00873401 0)
  (0.0756784 -0.00844311 0)
  (0.0716121 -0.00840701 0)
  (0.0680568 -0.00861657 0)
  (0.0646691 -0.00898311 0)
  (0.0612471 -0.00936816 0)
  (0.0577295 -0.00961394 0)
  (0.0541681 -0.00953798 0)
  (0.0507407 -0.00887856 0)
  (0.0477962 -0.00726953 0)
  (0.0458843 -0.0042566 0)
  (0.0457112 0.00073245 0)
  (0.0478742 0.00810991 0)
  (0.0531129 0.0169444 0)
  (0.0611426 0.0245088 0)
  (0.0705 0.0267135 0)
  (0.079063 0.0203767 0)
  (0.0853201 0.00624911 0)
  (0.0866457 -0.0111615 0)
  (0.0903584 -0.0317229 0)
  (0.141952 -0.0908046 0)
  (-0.158663 -0.224128 0)
  (-0.621909 0.16182 0)
  (0.214599 0.104278 0)
  (0.0662275 0.0612853 0)
  (0.0926409 0.0444767 0)
  (0.132529 0.0278819 0)
  (0.155836 0.0143106 0)
  (0.165255 0.00475492 0)
  (0.167778 -0.00152488 0)
  (0.167038 -0.00526862 0)
  (0.164414 -0.00701384 0)
  (0.16065 -0.00727943 0)
  (0.156291 -0.00649535 0)
  (0.151677 -0.00501819 0)
  (0.146934 -0.00311975 0)
  (0.142095 -0.00100678 0)
  (0.137234 0.00114106 0)
  (0.132486 0.00315773 0)
  (0.127965 0.004917 0)
  (0.123698 0.00637071 0)
  (0.119636 0.00755425 0)
  (0.115705 0.00855833 0)
  (0.11185 0.00949901 0)
  (0.108067 0.010493 0)
  (0.104422 0.0116545 0)
  (0.101084 0.013135 0)
  (0.0983695 0.0152015 0)
  (0.0967896 0.0182879 0)
  (0.0969574 0.0225483 0)
  (0.0998689 0.0268992 0)
  (0.106453 0.0314723 0)
  (0.116468 0.0351932 0)
  (0.128283 0.0359735 0)
  (0.138976 0.032283 0)
  (0.145314 0.0242581 0)
  (0.143722 0.00917125 0)
  (0.133196 -0.014848 0)
  (0.15688 -0.0639481 0)
  (-0.186362 -0.160547 0)
  (0.135823 -0.145783 0)
  (-0.133816 -0.0149157 0)
  (-0.275858 0.190979 0)
  (0.208208 0.0684035 0)
  (0.129776 0.0441905 0)
  (0.131771 0.0367971 0)
  (0.161311 0.0296148 0)
  (0.182545 0.0234996 0)
  (0.192068 0.0187121 0)
  (0.194982 0.0148584 0)
  (0.194847 0.0114823 0)
  (0.193093 0.00822352 0)
  (0.190535 0.00494881 0)
  (0.187755 0.00150523 0)
  (0.185204 -0.00225279 0)
  (0.183142 -0.00643219 0)
  (0.181643 -0.0110918 0)
  (0.180642 -0.0162403 0)
  (0.179966 -0.0218358 0)
  (0.179373 -0.0277915 0)
  (0.178607 -0.0339956 0)
  (0.177457 -0.0403384 0)
  (0.175801 -0.046728 0)
  (0.173604 -0.0530887 0)
  (0.170922 -0.0593455 0)
  (0.167877 -0.0653996 0)
  (0.164671 -0.0710922 0)
  (0.161621 -0.076161 0)
  (0.159279 -0.0802034 0)
  (0.158605 -0.0827494 0)
  (0.160032 -0.0823484 0)
  (0.164369 -0.0792096 0)
  (0.172007 -0.0749387 0)
  (0.182004 -0.0721733 0)
  (0.191699 -0.0733768 0)
  (0.197868 -0.079979 0)
  (0.195651 -0.089796 0)
  (0.181049 -0.102846 0)
  (0.187289 -0.123417 0)
  (-0.192418 -0.171305 0)
)
;

boundaryField
{
  floor
  {
    type noSlip;
  }
  ceiling
  {
    type noSlip;
  }
  sWall
  {
    type noSlip;
  }
  nWall
  {
    type noSlip;
  }
  sideWalls
  {
    type empty;
  }
  glass1
  {
    type noSlip;
  }
  glass2
  {
    type noSlip;
  }
  sun
  {
    type noSlip;
  }
  heatsource1
  {
    type noSlip;
  }
  heatsource2
  {
    type noSlip;
  }
  Table_master
  {
    type noSlip;
  }
  Table_slave
  {
    type noSlip;
  }
  inlet
  {
    type fixedValue;
    value uniform (0.46194 -0.191342 0);
  }
  outlet
  {
    type zeroGradient;
  }
} 	// ************************************************************************* //

