/*--------------------------------*- C++ -*----------------------------------*\
  =========                 |
  \\      /  F ield         | OpenFOAM: The Open Source CFD Toolbox
   \\    /   O peration     | Website:  https://openfoam.org
    \\  /    A nd           | Version:  6
     \\/     M anipulation  |
\*---------------------------------------------------------------------------*/
FoamFile
{
    version     2.0;
    format      ascii;
    class       volVectorField;
    location    "100";
    object      U;
}
// * * * * * * * * * * * * * * * * * * * * * * * * * * * * * * * * * * * * * //

dimensions      [0 1 -1 0 0 0 0];

internalField   nonuniform List<vector> 
460
(
(0.0597636 0.0423502 0)
(-0.0876901 9.95795e-06 0)
(-0.0712267 0.000547996 0)
(-0.074785 0.00249705 0)
(-0.0800775 0.00305951 0)
(-0.0859661 0.00303428 0)
(-0.0917994 0.00272503 0)
(-0.0972057 0.00222332 0)
(-0.101885 0.00155478 0)
(-0.105553 0.000713171 0)
(-0.107904 -0.000331381 0)
(-0.108582 -0.00163358 0)
(-0.107118 -0.00328917 0)
(-0.102762 -0.00545118 0)
(-0.0941692 -0.00829947 0)
(-0.0794995 -0.0123512 0)
(-0.0588597 -0.0192394 0)
(-0.0414096 -0.0317713 0)
(-0.0836118 -0.000196203 0)
(0.000882828 0.0134671 0)
(-0.0442857 0.00668875 0)
(-0.0552196 0.00423907 0)
(-0.0637102 0.00243177 0)
(-0.0688635 0.00116124 0)
(-0.0719369 0.000410613 0)
(-0.0738535 -0.000100557 0)
(-0.0751077 -0.00058554 0)
(-0.0761273 -0.00110616 0)
(-0.0770171 -0.00166503 0)
(-0.075991 -0.0027167 0)
(-0.0691028 -0.00572579 0)
(-0.0552985 -0.0114461 0)
(-0.0380958 -0.0132341 0)
(0.0730515 -0.00203057 0)
(0.193457 0.0949006 0)
(-0.102432 0.0100981 0)
(-0.0666215 0.00450218 0)
(-0.073412 0.00703624 0)
(-0.0792558 0.00824552 0)
(-0.0851507 0.00838027 0)
(-0.0908234 0.00791167 0)
(-0.0960915 0.00704276 0)
(-0.100736 0.00584291 0)
(-0.104528 0.0043152 0)
(-0.107208 0.00241764 0)
(-0.108474 6.32925e-05 0)
(-0.10792 -0.00288688 0)
(-0.105085 -0.00659432 0)
(-0.0991483 -0.0112273 0)
(-0.0894231 -0.0172475 0)
(-0.0769378 -0.026165 0)
(-0.0643836 -0.0402233 0)
(-0.0457936 -0.0521447 0)
(-0.0363058 -0.0528275 0)
(0.142194 -0.0751302 0)
(-0.115568 0.0139475 0)
(-0.00890771 0.0242528 0)
(-0.0509311 0.0157369 0)
(-0.059473 0.010496 0)
(-0.066455 0.00645162 0)
(-0.0700401 0.00352075 0)
(-0.0717417 0.00209477 0)
(-0.0726471 0.00140651 0)
(-0.0731362 0.000937347 0)
(-0.0734731 0.000570022 0)
(-0.0738921 0.000366054 0)
(-0.0733567 -0.000702765 0)
(-0.0682069 -0.00662159 0)
(-0.0559631 -0.0203401 0)
(-0.039475 -0.025391 0)
(0.0676643 -0.00425259 0)
(0.311555 0.147895 0)
(-0.131042 0.0298292 0)
(-0.0571525 0.0138424 0)
(-0.0679351 0.0133983 0)
(-0.0743486 0.0140567 0)
(-0.0800897 0.0138657 0)
(-0.0854933 0.0129527 0)
(-0.0905088 0.0114735 0)
(-0.0950149 0.00949669 0)
(-0.0988584 0.00701286 0)
(-0.101851 0.00395728 0)
(-0.103762 0.000222392 0)
(-0.104271 -0.00433283 0)
(-0.102992 -0.0099405 0)
(-0.0994048 -0.0168268 0)
(-0.0931235 -0.0251858 0)
(-0.0845368 -0.0349319 0)
(-0.0738913 -0.0436973 0)
(-0.0594343 -0.0451488 0)
(-0.0534772 -0.046291 0)
(0.132362 0.023075 0)
(-0.137862 0.0370393 0)
(-0.0189435 0.0353986 0)
(-0.0569523 0.0242226 0)
(-0.0617408 0.0161859 0)
(-0.0659851 0.00995886 0)
(-0.0670366 0.00510137 0)
(-0.0666777 0.00329941 0)
(-0.0663065 0.00254141 0)
(-0.065945 0.00207906 0)
(-0.0655697 0.0017106 0)
(-0.0657735 0.00141019 0)
(-0.0671876 -0.000457544 0)
(-0.0668382 -0.0106177 0)
(-0.0577145 -0.0337993 0)
(-0.0407401 -0.0407625 0)
(0.0510301 -0.0126804 0)
(0.411537 0.192885 0)
(-0.159528 0.0550223 0)
(-0.0459445 0.0261489 0)
(-0.0605311 0.0209391 0)
(-0.067788 0.0203864 0)
(-0.0730961 0.0196256 0)
(-0.0780239 0.0182615 0)
(-0.082593 0.0162909 0)
(-0.0867663 0.0137385 0)
(-0.0904934 0.010566 0)
(-0.0936945 0.0066705 0)
(-0.0962571 0.00189793 0)
(-0.0980007 -0.00393647 0)
(-0.0986172 -0.0110726 0)
(-0.0979817 -0.01981 0)
(-0.0960035 -0.0302554 0)
(-0.0929042 -0.0419881 0)
(-0.0887828 -0.0531724 0)
(-0.0835485 -0.0608899 0)
(-0.0745485 -0.0632102 0)
(-0.0322417 -0.0459375 0)
(-0.15068 0.0746751 0)
(-0.0345062 0.0437561 0)
(-0.0630831 0.0295097 0)
(-0.0622891 0.0190057 0)
(-0.0624321 0.0104548 0)
(-0.0589034 0.00080934 0)
(-0.0550016 -0.00170121 0)
(-0.0527782 -0.00273998 0)
(-0.0511139 -0.00397187 0)
(-0.0497754 -0.00573321 0)
(-0.050363 -0.00832099 0)
(-0.0565184 -0.0136766 0)
(-0.0667165 -0.0275478 0)
(-0.0587928 -0.0469264 0)
(-0.0449515 -0.0539133 0)
(0.00936884 -0.038307 0)
(0.494284 0.229437 0)
(-0.181863 0.082837 0)
(-0.0348959 0.040568 0)
(-0.0515562 0.0291736 0)
(-0.0601518 0.0267239 0)
(-0.0648098 0.0251403 0)
(-0.0689476 0.023224 0)
(-0.0727048 0.0207856 0)
(-0.0760961 0.0177893 0)
(-0.079184 0.0141754 0)
(-0.0820277 0.00981969 0)
(-0.0846785 0.0045287 0)
(-0.0871695 -0.0019292 0)
(-0.0891928 -0.00971897 0)
(-0.0909772 -0.019024 0)
(-0.092802 -0.0297083 0)
(-0.0953515 -0.040999 0)
(-0.099768 -0.0511999 0)
(-0.108081 -0.0575805 0)
(-0.122946 -0.0552675 0)
(-0.14339 -0.0370483 0)
(-0.154005 -0.00326839 0)
(-0.129013 0.0662691 0)
(-0.0676229 0.0376708 0)
(-0.069605 0.0278815 0)
(-0.0629885 0.0179014 0)
(-0.062194 0.00887415 0)
(-0.0650542 0.000239998 0)
(-0.0689716 -0.000854026 0)
(-0.0705315 -0.00205881 0)
(-0.0707486 -0.00315844 0)
(-0.0700984 -0.00453208 0)
(-0.067731 -0.00668906 0)
(-0.0606356 -0.0110355 0)
(-0.0487001 -0.0212053 0)
(-0.049622 -0.0465403 0)
(-0.0526006 -0.0593149 0)
(-0.0451709 -0.0706103 0)
(0.564049 0.259051 0)
(-0.196213 0.111334 0)
(-0.0245619 0.056242 0)
(-0.0403011 0.0378781 0)
(-0.0512477 0.0327951 0)
(-0.055464 0.0300781 0)
(-0.0586129 0.0273625 0)
(-0.0611728 0.0243349 0)
(-0.0632097 0.0209071 0)
(-0.0648969 0.0170129 0)
(-0.0664369 0.0125329 0)
(-0.0680464 0.00724435 0)
(-0.0699093 0.000834797 0)
(-0.0719585 -0.00692991 0)
(-0.074107 -0.0159921 0)
(-0.0766746 -0.025924 0)
(-0.0801857 -0.0356277 0)
(-0.0854201 -0.0434405 0)
(-0.093161 -0.0473905 0)
(-0.103413 -0.0449834 0)
(-0.112927 -0.0331996 0)
(-0.112152 -0.00985876 0)
(-0.0977301 0.0210337 0)
(-0.0714017 0.0200043 0)
(-0.0625421 0.0200949 0)
(-0.0542658 0.0153496 0)
(-0.0506037 0.0102814 0)
(-0.0498064 0.00539274 0)
(-0.0502122 0.00275832 0)
(-0.0502424 0.00109289 0)
(-0.0498131 -3.5775e-05 0)
(-0.0490532 -0.000949966 0)
(-0.0475607 -0.00202915 0)
(-0.044223 -0.00487887 0)
(-0.0398898 -0.0146235 0)
(-0.0433016 -0.0375881 0)
(-0.0586474 -0.0542873 0)
(-0.0919419 -0.0798963 0)
(-0.0987424 -0.115425 0)
(0.0483981 -0.137845 0)
(0.623126 0.279753 0)
(-0.19477 0.142576 0)
(-0.0120572 0.0765078 0)
(-0.022818 0.0505193 0)
(-0.0388882 0.0401645 0)
(-0.044362 0.0347835 0)
(-0.0468187 0.0304167 0)
(-0.0479977 0.0263403 0)
(-0.0482248 0.0222404 0)
(-0.0478359 0.0179996 0)
(-0.0471983 0.0135203 0)
(-0.0467268 0.00854706 0)
(-0.046781 0.00259861 0)
(-0.0474007 -0.00484363 0)
(-0.0483975 -0.0136829 0)
(-0.0498202 -0.0231209 0)
(-0.0520801 -0.0317223 0)
(-0.0558826 -0.0378489 0)
(-0.0616962 -0.0400867 0)
(-0.0690078 -0.0370309 0)
(-0.0750611 -0.027217 0)
(-0.074669 -0.0111521 0)
(-0.0667116 0.00331687 0)
(-0.0534546 0.00774694 0)
(-0.0448781 0.0105111 0)
(-0.0376626 0.00938068 0)
(-0.0332339 0.00674237 0)
(-0.0309702 0.00374318 0)
(-0.0299057 0.00152528 0)
(-0.028985 -0.000225755 0)
(-0.027925 -0.00167913 0)
(-0.0266233 -0.00302028 0)
(-0.0247602 -0.00455696 0)
(-0.0220378 -0.00736983 0)
(-0.019532 -0.0145743 0)
(-0.0215894 -0.0286475 0)
(-0.0301481 -0.0390901 0)
(-0.0505792 -0.0426508 0)
(-0.077112 -0.0231743 0)
(0.101972 -0.0500599 0)
(0.652161 0.296384 0)
(-0.20785 0.158533 0)
(-0.00522268 0.0876785 0)
(0.000704096 0.0691064 0)
(-0.0179039 0.0564979 0)
(-0.0279082 0.0428306 0)
(-0.0305872 0.0334803 0)
(-0.030421 0.0269362 0)
(-0.0286838 0.0213728 0)
(-0.0259232 0.016237 0)
(-0.0226929 0.011391 0)
(-0.0196622 0.00651159 0)
(-0.0174265 0.000854456 0)
(-0.0159093 -0.00646461 0)
(-0.0150068 -0.0151199 0)
(-0.0141957 -0.0239312 0)
(-0.0140838 -0.0310237 0)
(-0.0156915 -0.0349409 0)
(-0.019547 -0.0351482 0)
(-0.0250403 -0.0314714 0)
(-0.0300504 -0.0236988 0)
(-0.0316036 -0.0129283 0)
(-0.0286512 -0.00377058 0)
(-0.0234157 0.000773929 0)
(-0.0181935 0.00364355 0)
(-0.0132449 0.00423711 0)
(-0.00951024 0.00345041 0)
(-0.00701479 0.00197605 0)
(-0.00537252 0.000442495 0)
(-0.00394189 -0.00106239 0)
(-0.00270185 -0.0025167 0)
(-0.0013132 -0.00404519 0)
(0.000448949 -0.00594498 0)
(0.00261276 -0.00893946 0)
(0.00424274 -0.0146014 0)
(0.00307487 -0.0239603 0)
(-0.00129375 -0.0336356 0)
(-0.0115505 -0.0422361 0)
(-0.0654107 -0.0434717 0)
(0.169584 -0.0688613 0)
(0.683383 0.313242 0)
(-0.175171 0.120037 0)
(0.020307 0.00940606 0)
(0.05528 0.026003 0)
(0.0358673 0.0365561 0)
(0.0134175 0.0256875 0)
(0.00615974 0.0134342 0)
(0.00599898 0.00661991 0)
(0.00798427 0.0015784 0)
(0.0114087 -0.00306351 0)
(0.0155189 -0.00719551 0)
(0.0196343 -0.0103184 0)
(0.0228677 -0.0124374 0)
(0.0251787 -0.0146077 0)
(0.0281567 -0.0183369 0)
(0.0314957 -0.0232644 0)
(0.0337115 -0.0271377 0)
(0.0335493 -0.028219 0)
(0.0306368 -0.0263186 0)
(0.0256083 -0.022066 0)
(0.0200767 -0.0160543 0)
(0.0160993 -0.00912047 0)
(0.0147888 -0.00317719 0)
(0.0154911 0.000324715 0)
(0.0169036 0.00237378 0)
(0.0189999 0.00321734 0)
(0.0210376 0.00321289 0)
(0.0227786 0.00262747 0)
(0.0242346 0.00173475 0)
(0.0253663 0.000644048 0)
(0.0263508 -0.000614921 0)
(0.02732 -0.00215212 0)
(0.028374 -0.00420999 0)
(0.029479 -0.00726832 0)
(0.0301247 -0.0120847 0)
(0.02938 -0.019032 0)
(0.0274822 -0.0269842 0)
(0.023928 -0.0366346 0)
(-0.0323237 -0.0506828 0)
(0.271419 -0.055163 0)
(0.753978 0.344422 0)
(0.189814 0.257543 0)
(0.234102 0.211183 0)
(0.271331 0.190289 0)
(0.229905 0.151214 0)
(0.187107 0.117046 0)
(0.161813 0.0904719 0)
(0.1449 0.0713993 0)
(0.131459 0.0595408 0)
(0.120532 0.0540221 0)
(0.111819 0.0532384 0)
(0.104859 0.0546773 0)
(0.0994889 0.0548988 0)
(0.0976652 0.0459884 0)
(0.0978116 0.0299996 0)
(0.0972854 0.014019 0)
(0.0944961 0.00329082 0)
(0.0892607 -0.00103263 0)
(0.0822587 -0.000469801 0)
(0.0745096 0.00269963 0)
(0.0671667 0.00665877 0)
(0.0613298 0.0102818 0)
(0.0575826 0.0127421 0)
(0.0557097 0.0135351 0)
(0.0550383 0.0132391 0)
(0.0551197 0.0123524 0)
(0.0556311 0.011061 0)
(0.0562625 0.00936218 0)
(0.0567869 0.00738639 0)
(0.0571456 0.00515272 0)
(0.0573231 0.00257393 0)
(0.057319 -0.000524197 0)
(0.0571215 -0.0044111 0)
(0.0566296 -0.00947791 0)
(0.0555138 -0.0161939 0)
(0.0533341 -0.0247766 0)
(0.0500347 -0.0349384 0)
(0.0438244 -0.0474859 0)
(-0.00687574 -0.064075 0)
(0.270613 -0.0491459 0)
(0.040965 0.124058 0)
(0.0847539 0.0757161 0)
(0.122392 0.0362472 0)
(0.146564 1.54763e-05 0)
(0.161413 -0.0342782 0)
(0.170856 -0.0663986 0)
(0.176973 -0.096074 0)
(0.180753 -0.122956 0)
(0.182655 -0.146699 0)
(0.182867 -0.167143 0)
(0.179331 -0.180775 0)
(0.170137 -0.186229 0)
(0.155269 -0.18323 0)
(0.137199 -0.172709 0)
(0.11948 -0.157975 0)
(0.104834 -0.142498 0)
(0.0943793 -0.128786 0)
(0.087957 -0.118009 0)
(0.0847803 -0.110282 0)
(0.0838593 -0.105161 0)
(0.0841293 -0.101932 0)
(0.0847902 -0.0999672 0)
(0.0854536 -0.0988459 0)
(0.0859092 -0.0981481 0)
(0.0860101 -0.0975785 0)
(0.0856887 -0.0970039 0)
(0.0849341 -0.0963957 0)
(0.0837478 -0.0957799 0)
(0.0820924 -0.0952079 0)
(0.0798558 -0.0947235 0)
(0.0768093 -0.0943453 0)
(0.0725667 -0.0940529 0)
(0.0667228 -0.0937493 0)
(0.0590709 -0.0933078 0)
(0.0480382 -0.0935847 0)
(0.0143084 -0.101522 0)
(0.120767 -0.171349 0)
(0.672381 0.414821 0)
(-0.267937 0.512155 0)
(0.0409519 0.452131 0)
(0.0183283 0.288903 0)
(0.0482874 0.26423 0)
(0.0817222 0.261871 0)
(0.109531 0.268996 0)
(0.12986 0.283347 0)
(0.143562 0.303545 0)
(0.152188 0.32782 0)
(0.157227 0.353996 0)
(0.159839 0.379788 0)
(0.160723 0.403085 0)
(0.160388 0.419708 0)
(0.159252 0.426811 0)
(0.157531 0.422947 0)
(0.15537 0.408799 0)
(0.152997 0.388842 0)
(0.150616 0.367933 0)
(0.148328 0.349561 0)
(0.146158 0.335344 0)
(0.144112 0.325443 0)
(0.142179 0.31918 0)
(0.140312 0.315573 0)
(0.138437 0.31376 0)
(0.136454 0.313084 0)
(0.134268 0.313029 0)
(0.131817 0.313194 0)
(0.129045 0.313335 0)
(0.125858 0.313348 0)
(0.122113 0.313224 0)
(0.11761 0.313003 0)
(0.112082 0.312723 0)
(0.105166 0.312365 0)
(0.0963718 0.31184 0)
(0.0850896 0.31104 0)
(0.0704973 0.309742 0)
(0.0497861 0.3081 0)
(-0.00371974 0.331318 0)
(0.154275 0.524714 0)
)
;

boundaryField
{
    floor
    {
        type            noSlip;
    }
    ceiling
    {
        type            noSlip;
    }
    sWall
    {
        type            noSlip;
    }
    nWall
    {
        type            noSlip;
    }
    sideWalls
    {
        type            empty;
    }
    glass1
    {
        type            noSlip;
    }
    glass2
    {
        type            noSlip;
    }
    sun
    {
        type            noSlip;
    }
    Table_master
    {
        type            noSlip;
    }
    Table_slave
    {
        type            noSlip;
    }
    inlet
    {
        type            fixedValue;
        value           nonuniform 0();
    }
    outlet
    {
        type            zeroGradient;
    }
}


// ************************************************************************* //
