/*--------------------------------*- C++ -*----------------------------------*\
  =========                 |
  \\      /  F ield         | OpenFOAM: The Open Source CFD Toolbox
   \\    /   O peration     | Website:  https://openfoam.org
    \\  /    A nd           | Version:  6
     \\/     M anipulation  |
\*---------------------------------------------------------------------------*/
FoamFile
{
    version     2.0;
    format      ascii;
    class       volVectorField;
    location    "100";
    object      U;
}
// * * * * * * * * * * * * * * * * * * * * * * * * * * * * * * * * * * * * * //

dimensions      [0 1 -1 0 0 0 0];

internalField   nonuniform List<vector> 
459
(
(0.0277434 0.0702117 0)
(-0.135833 0.0168063 0)
(-0.143185 0.00576812 0)
(-0.151237 0.00105617 0)
(-0.151682 -0.00299283 0)
(-0.146251 -0.00612597 0)
(-0.137659 -0.00765018 0)
(-0.127949 -0.00826818 0)
(-0.11776 -0.00893081 0)
(-0.106697 -0.0100743 0)
(-0.0939566 -0.0118743 0)
(-0.0786968 -0.01437 0)
(-0.0601019 -0.0173218 0)
(-0.0365501 -0.0197176 0)
(-0.00377716 -0.0187309 0)
(-0.0662994 0.00498662 0)
(-0.00133894 0.0113641 0)
(-0.0240511 0.00371949 0)
(-0.02759 -3.89207e-05 0)
(-0.0284307 -0.00182159 0)
(-0.0283546 -0.0024636 0)
(-0.0275911 -0.00316063 0)
(-0.0253997 -0.00405497 0)
(-0.021803 -0.0046234 0)
(-0.017503 -0.00476579 0)
(-0.0132856 -0.00439331 0)
(-0.0100674 -0.00335696 0)
(-0.00851431 -0.00161896 0)
(-0.00849876 4.47678e-05 0)
(-0.00901387 -0.000255087 0)
(-0.00949039 -0.00230393 0)
(-0.015214 0.000873885 0)
(-0.0272788 0.00448305 0)
(0.066873 -0.00850101 0)
(0.151882 0.14124 0)
(-0.135254 0.0458861 0)
(-0.12435 0.0182465 0)
(-0.135844 0.00732959 0)
(-0.141238 -0.00351826 0)
(-0.13846 -0.0117066 0)
(-0.131988 -0.014333 0)
(-0.124988 -0.0145462 0)
(-0.118183 -0.0149633 0)
(-0.111098 -0.0164956 0)
(-0.103098 -0.0194558 0)
(-0.0935184 -0.0239531 0)
(-0.081607 -0.029811 0)
(-0.0663574 -0.0362704 0)
(-0.0476667 -0.0419746 0)
(-0.0307103 -0.0479756 0)
(0.0278124 0.00886803 0)
(-0.113487 0.0203526 0)
(-0.0070266 0.0189846 0)
(-0.0286842 0.00961332 0)
(-0.0286236 0.00386273 0)
(-0.0272866 0.00170617 0)
(-0.0268155 0.0019141 0)
(-0.0273126 0.000989431 0)
(-0.0273043 -0.00118603 0)
(-0.0265155 -0.00216627 0)
(-0.0256647 -0.00209473 0)
(-0.0249649 -0.000914944 0)
(-0.0246243 0.00141458 0)
(-0.0249366 0.00440923 0)
(-0.0257732 0.00573978 0)
(-0.0252043 0.00268085 0)
(-0.0209601 -0.00348113 0)
(-0.0154558 -0.00170174 0)
(-0.0283006 0.000747952 0)
(0.11295 -0.00903731 0)
(0.338688 0.216928 0)
(-0.101917 0.0595852 0)
(-0.0552578 0.00898453 0)
(-0.0762467 0.0043201 0)
(-0.10101 -0.00856214 0)
(-0.113493 -0.018128 0)
(-0.113073 -0.0202998 0)
(-0.110957 -0.0196874 0)
(-0.108978 -0.0198239 0)
(-0.106897 -0.0215743 0)
(-0.104596 -0.0252274 0)
(-0.101913 -0.0308731 0)
(-0.0984513 -0.0382674 0)
(-0.0934675 -0.0465876 0)
(-0.0867858 -0.0541505 0)
(-0.0823918 -0.0578674 0)
(-0.0888392 -0.0523776 0)
(-0.127173 0.0566589 0)
(-0.0278809 0.0243943 0)
(-0.0425183 0.00965952 0)
(-0.0382238 0.000669198 0)
(-0.0346572 -0.00456741 0)
(-0.030172 -0.00743366 0)
(-0.0148627 -0.00396951 0)
(-0.0214437 -0.00822074 0)
(-0.0261503 -0.0101487 0)
(-0.0313565 -0.0114685 0)
(-0.0361029 -0.0123009 0)
(-0.0396941 -0.0127698 0)
(-0.0422386 -0.0132432 0)
(-0.0435884 -0.0145965 0)
(-0.0407654 -0.0183872 0)
(-0.0310301 -0.0200592 0)
(-0.0209495 -0.0179073 0)
(-0.0218467 -0.0178503 0)
(0.129387 -0.00729952 0)
(0.52062 0.194961 0)
(0.259907 0.1556 0)
(0.199384 0.126169 0)
(0.13877 0.104232 0)
(0.0596076 0.0737085 0)
(-0.0399229 0.014868 0)
(-0.0752202 -0.011749 0)
(-0.0858578 -0.0169825 0)
(-0.0906578 -0.0187489 0)
(-0.0936527 -0.0207846 0)
(-0.0965161 -0.0242226 0)
(-0.10012 -0.0294686 0)
(-0.104819 -0.0362791 0)
(-0.110766 -0.0436557 0)
(-0.119051 -0.0497233 0)
(-0.133439 -0.0511381 0)
(-0.154559 -0.0408915 0)
(-0.158186 -0.00865318 0)
(-0.128636 0.0397305 0)
(-0.0912332 0.015362 0)
(-0.091204 0.00535861 0)
(-0.0907795 -0.00177107 0)
(-0.0923254 -0.00664005 0)
(-0.0951789 -0.00945023 0)
(-0.0944345 -0.00643245 0)
(-0.0884834 -0.00583234 0)
(-0.0827028 -0.006304 0)
(-0.0767427 -0.00687911 0)
(-0.0706146 -0.00760384 0)
(-0.0642198 -0.00858483 0)
(-0.0567957 -0.0100892 0)
(-0.0471101 -0.0128109 0)
(-0.0365061 -0.0178111 0)
(-0.0335332 -0.0248521 0)
(-0.0327585 -0.0284561 0)
(-0.0245281 -0.0300162 0)
(0.0715805 -0.0208291 0)
(0.305667 -0.169896 0)
(0.214287 0.0270499 0)
(0.2122 0.118674 0)
(0.184443 0.153789 0)
(0.116129 0.142671 0)
(0.0341961 0.0943205 0)
(-0.0299377 0.0267464 0)
(-0.0546454 -0.00288991 0)
(-0.0654323 -0.01219 0)
(-0.0713586 -0.0160554 0)
(-0.0763225 -0.0190906 0)
(-0.081965 -0.0230505 0)
(-0.0888807 -0.0282489 0)
(-0.0970985 -0.0340361 0)
(-0.106845 -0.0391205 0)
(-0.11869 -0.0411638 0)
(-0.129816 -0.0352611 0)
(-0.130425 -0.0164937 0)
(-0.118466 0.00360883 0)
(-0.102595 0.00430533 0)
(-0.0950177 0.00255245 0)
(-0.0899615 -0.00146328 0)
(-0.0873352 -0.00520512 0)
(-0.0857764 -0.0073748 0)
(-0.0832796 -0.00714503 0)
(-0.079406 -0.00745546 0)
(-0.0751206 -0.00781918 0)
(-0.0706558 -0.008143 0)
(-0.0660797 -0.00841555 0)
(-0.0614405 -0.00869775 0)
(-0.056633 -0.00923781 0)
(-0.0515612 -0.0108227 0)
(-0.0472973 -0.0149363 0)
(-0.0469239 -0.0221076 0)
(-0.0522684 -0.026496 0)
(-0.0607901 -0.0266046 0)
(-0.0698598 -0.0195344 0)
(-0.0864551 -0.0160473 0)
(-0.0726599 -0.0236142 0)
(0.108295 -0.0581693 0)
(0.22906 -0.263655 0)
(0.133417 -0.029868 0)
(0.176145 0.139772 0)
(0.166634 0.210585 0)
(0.110673 0.205593 0)
(0.0475128 0.151616 0)
(0.000776641 0.0744151 0)
(-0.0247106 0.0187425 0)
(-0.0380893 -0.00245269 0)
(-0.0449577 -0.010273 0)
(-0.0497876 -0.013658 0)
(-0.0549548 -0.0165941 0)
(-0.061312 -0.0204256 0)
(-0.0690253 -0.0249688 0)
(-0.0780505 -0.0291186 0)
(-0.0879299 -0.0307577 0)
(-0.0960936 -0.0267332 0)
(-0.09791 -0.0163874 0)
(-0.0925113 -0.00739576 0)
(-0.0846786 -0.0047687 0)
(-0.0785813 -0.00456922 0)
(-0.073971 -0.00627797 0)
(-0.0709167 -0.00847655 0)
(-0.068731 -0.0100864 0)
(-0.0664726 -0.0107379 0)
(-0.0637777 -0.0113601 0)
(-0.0608066 -0.0120039 0)
(-0.0576281 -0.0125947 0)
(-0.0542547 -0.0130959 0)
(-0.0506989 -0.0135078 0)
(-0.0469744 -0.0139419 0)
(-0.0432435 -0.0148102 0)
(-0.0402551 -0.0167891 0)
(-0.0393668 -0.0197067 0)
(-0.0407889 -0.0209998 0)
(-0.0423996 -0.0196738 0)
(-0.0432667 -0.0155575 0)
(-0.0525887 -0.0124586 0)
(-0.0791314 -0.0171822 0)
(0.16505 -0.0733221 0)
(0.159627 -0.329198 0)
(0.0512606 -0.124575 0)
(0.143336 0.13082 0)
(0.129113 0.254001 0)
(0.0741665 0.252888 0)
(0.0317729 0.18952 0)
(0.0109841 0.105076 0)
(-0.000199721 0.0391019 0)
(-0.0103814 0.00698457 0)
(-0.0172249 -0.00536376 0)
(-0.0208303 -0.00974582 0)
(-0.0241109 -0.0120191 0)
(-0.0281496 -0.014612 0)
(-0.0334938 -0.0179427 0)
(-0.040215 -0.0213029 0)
(-0.0477109 -0.0231216 0)
(-0.0541161 -0.0214997 0)
(-0.0569635 -0.0165243 0)
(-0.0556842 -0.0117988 0)
(-0.0523642 -0.00971752 0)
(-0.0490686 -0.00915904 0)
(-0.0463137 -0.00980457 0)
(-0.0443576 -0.0109985 0)
(-0.0429689 -0.012147 0)
(-0.041705 -0.0130243 0)
(-0.040314 -0.0138674 0)
(-0.0387733 -0.0147143 0)
(-0.0370565 -0.0155314 0)
(-0.0351207 -0.0162848 0)
(-0.0329218 -0.0169617 0)
(-0.0304341 -0.0176188 0)
(-0.0277424 -0.0184598 0)
(-0.025204 -0.0197487 0)
(-0.0233313 -0.021263 0)
(-0.0219082 -0.0218702 0)
(-0.0190449 -0.0209768 0)
(-0.0127343 -0.0190497 0)
(-0.0123802 -0.0186432 0)
(-0.0852975 -0.025505 0)
(0.251039 -0.0805959 0)
(0.051776 -0.290926 0)
(-0.10676 -0.176275 0)
(0.0870967 0.0671546 0)
(0.0785797 0.298944 0)
(0.00937993 0.281392 0)
(0.00143981 0.199701 0)
(0.0119018 0.111595 0)
(0.0191989 0.0488617 0)
(0.0176463 0.0147343 0)
(0.0130184 -0.00132548 0)
(0.0107027 -0.00775902 0)
(0.00974659 -0.0103219 0)
(0.00895635 -0.0120501 0)
(0.00724418 -0.0139802 0)
(0.00404806 -0.0160497 0)
(-0.000499377 -0.0175051 0)
(-0.00514307 -0.0172452 0)
(-0.00825478 -0.015219 0)
(-0.00924952 -0.0129352 0)
(-0.00892063 -0.0116055 0)
(-0.00826881 -0.0110677 0)
(-0.00772048 -0.0112397 0)
(-0.00750999 -0.0118595 0)
(-0.00759922 -0.0126438 0)
(-0.00779779 -0.013448 0)
(-0.00796372 -0.0143065 0)
(-0.00805338 -0.0152126 0)
(-0.00802501 -0.0161363 0)
(-0.00782296 -0.0170462 0)
(-0.007381 -0.0179239 0)
(-0.00663548 -0.0187934 0)
(-0.00557067 -0.0197597 0)
(-0.00427565 -0.0209671 0)
(-0.00285188 -0.022375 0)
(-0.000917101 -0.0236202 0)
(0.00342922 -0.0245857 0)
(0.0131621 -0.0260403 0)
(0.0234494 -0.0298217 0)
(-0.0448223 -0.038261 0)
(0.417328 -0.0556241 0)
(-0.137601 -0.15191 0)
(-0.395089 -0.104319 0)
(-0.57426 -0.00352258 0)
(0.00175711 0.289922 0)
(-0.0811473 0.263138 0)
(-0.0289334 0.179967 0)
(0.017785 0.0946027 0)
(0.0413732 0.0451746 0)
(0.0497673 0.0176328 0)
(0.0505311 0.00322683 0)
(0.050964 -0.00365904 0)
(0.0523985 -0.00655166 0)
(0.0542188 -0.00776423 0)
(0.0553903 -0.00846953 0)
(0.0552003 -0.00905359 0)
(0.0534704 -0.00945399 0)
(0.0506933 -0.00937651 0)
(0.0477845 -0.00871187 0)
(0.0453863 -0.00784843 0)
(0.0434846 -0.00723738 0)
(0.0417982 -0.00697694 0)
(0.0401524 -0.00708756 0)
(0.0384325 -0.00749435 0)
(0.0366178 -0.00808908 0)
(0.0347572 -0.00879641 0)
(0.0328973 -0.00959913 0)
(0.0310538 -0.0104822 0)
(0.0292444 -0.0114288 0)
(0.0275025 -0.0124261 0)
(0.0258775 -0.0134725 0)
(0.024429 -0.0145946 0)
(0.0232057 -0.0158701 0)
(0.0222197 -0.0174269 0)
(0.0214719 -0.0193967 0)
(0.0211519 -0.0219199 0)
(0.0223005 -0.0254418 0)
(0.0266411 -0.0313043 0)
(0.0300223 -0.0413237 0)
(-0.036125 -0.0485077 0)
(0.447144 -0.0178217 0)
(-2.0953 -0.0139235 0)
(-0.051298 0.135381 0)
(-0.121957 0.160853 0)
(-0.0241058 0.116133 0)
(0.0504541 0.0599451 0)
(0.0846646 0.0354908 0)
(0.100618 0.0229883 0)
(0.10961 0.0142235 0)
(0.113713 0.00886185 0)
(0.115988 0.00688062 0)
(0.117181 0.00703895 0)
(0.117334 0.0081085 0)
(0.11636 0.00925154 0)
(0.114235 0.0100292 0)
(0.111138 0.0103271 0)
(0.107476 0.0101762 0)
(0.103677 0.00956761 0)
(0.0999636 0.00849723 0)
(0.0963824 0.00705931 0)
(0.0929151 0.00536185 0)
(0.0895095 0.00351219 0)
(0.0861133 0.00159686 0)
(0.0826902 -0.000340165 0)
(0.0792106 -0.00230181 0)
(0.0756448 -0.00431247 0)
(0.0719734 -0.00640625 0)
(0.0681937 -0.00862371 0)
(0.0643205 -0.0110139 0)
(0.0603803 -0.0136428 0)
(0.056396 -0.0166062 0)
(0.0523614 -0.0200344 0)
(0.048214 -0.0240787 0)
(0.0438451 -0.0289123 0)
(0.0392715 -0.034833 0)
(0.0337737 -0.0425624 0)
(0.0196561 -0.0526509 0)
(-0.0469797 -0.0519443 0)
(0.192036 0.0246993 0)
(-0.89238 0.0780222 0)
(0.351723 -0.0258871 0)
(0.136325 -0.012493 0)
(0.132392 -0.0253368 0)
(0.171253 -0.0548718 0)
(0.197381 -0.0800652 0)
(0.210014 -0.10125 0)
(0.213018 -0.117831 0)
(0.210744 -0.130196 0)
(0.205299 -0.139041 0)
(0.197906 -0.144724 0)
(0.189478 -0.147262 0)
(0.180765 -0.146692 0)
(0.172373 -0.143408 0)
(0.164735 -0.138203 0)
(0.158101 -0.132067 0)
(0.152506 -0.125908 0)
(0.14778 -0.120352 0)
(0.143637 -0.1157 0)
(0.139782 -0.11202 0)
(0.135967 -0.109233 0)
(0.132011 -0.107195 0)
(0.127793 -0.105745 0)
(0.123243 -0.104738 0)
(0.118318 -0.104051 0)
(0.112995 -0.103589 0)
(0.107264 -0.103283 0)
(0.101122 -0.103088 0)
(0.094561 -0.102971 0)
(0.0875565 -0.102909 0)
(0.0800484 -0.102874 0)
(0.0719264 -0.10282 0)
(0.0630408 -0.102674 0)
(0.0534134 -0.102324 0)
(0.0431096 -0.101755 0)
(0.0292972 -0.103484 0)
(-0.0238638 -0.120383 0)
(0.203736 -0.244516 0)
(0.504494 0.241177 0)
(0.365714 -0.0385526 0)
(0.0535531 0.131929 0)
(0.331828 0.114601 0)
(0.338835 0.146702 0)
(0.315677 0.176045 0)
(0.317604 0.205445 0)
(0.318839 0.235691 0)
(0.311712 0.265166 0)
(0.299781 0.293149 0)
(0.286887 0.318866 0)
(0.274708 0.341388 0)
(0.263824 0.359342 0)
(0.254474 0.371339 0)
(0.246678 0.376672 0)
(0.240241 0.375759 0)
(0.234829 0.370048 0)
(0.230067 0.361476 0)
(0.225608 0.351877 0)
(0.221153 0.342625 0)
(0.216477 0.334555 0)
(0.211434 0.328038 0)
(0.205949 0.323119 0)
(0.199992 0.319647 0)
(0.193558 0.317385 0)
(0.186646 0.316072 0)
(0.179241 0.31548 0)
(0.171311 0.315429 0)
(0.162801 0.315798 0)
(0.153636 0.31652 0)
(0.143722 0.317572 0)
(0.132941 0.318951 0)
(0.121149 0.320657 0)
(0.108175 0.322679 0)
(0.0938086 0.324996 0)
(0.0779223 0.327528 0)
(0.0606315 0.329789 0)
(0.0404417 0.33329 0)
(-0.0671736 0.386223 0)
(0.307459 0.62051 0)
)
;

boundaryField
{
    floor
    {
        type            noSlip;
    }
    ceiling
    {
        type            noSlip;
    }
    sWall
    {
        type            noSlip;
    }
    nWall
    {
        type            noSlip;
    }
    sideWalls
    {
        type            empty;
    }
    glass1
    {
        type            noSlip;
    }
    glass2
    {
        type            noSlip;
    }
    sun
    {
        type            noSlip;
    }
    heatsource1
    {
        type            noSlip;
    }
    heatsource2
    {
        type            noSlip;
    }
    Table_master
    {
        type            noSlip;
    }
    Table_slave
    {
        type            noSlip;
    }
    inlet
    {
        type            fixedValue;
        value           uniform (0.1 0 0);
    }
    outlet
    {
        type            zeroGradient;
    }
}


// ************************************************************************* //
