/*--------------------------------*- C++ -*----------------------------------*\
  =========                 |
  \\      /  F ield         | OpenFOAM: The Open Source CFD Toolbox
   \\    /   O peration     | Website:  https://openfoam.org
    \\  /    A nd           | Version:  6
     \\/     M anipulation  |
\*---------------------------------------------------------------------------*/
FoamFile
{
    version     2.0;
    format      ascii;
    class       volScalarField;
    location    "20";
    object      k;
}
// * * * * * * * * * * * * * * * * * * * * * * * * * * * * * * * * * * * * * //

dimensions      [0 2 -2 0 0 0 0];

internalField   nonuniform List<scalar> 
458
(
0.00422419
0.00526745
0.00516542
0.00552498
0.00600166
0.00655302
0.00701841
0.00731559
0.00733535
0.0069872
0.00626447
0.00526942
0.00435195
0.00358015
0.0028596
0.000956163
0.00174844
0.00213193
0.00210819
0.00178676
0.00124013
0.000932837
0.000809163
0.00077045
0.000760692
0.000761322
0.000773822
0.000821291
0.000966692
0.00129133
0.00145914
0.00131608
0.000841417
0.00788897
0.0153964
0.0104691
0.0103106
0.0108833
0.0116948
0.0125662
0.0133006
0.0136435
0.0133775
0.0124769
0.0111342
0.00962528
0.00814181
0.00659057
0.00444391
0.00301949
0.00161858
0.00185951
0.003961
0.00466581
0.00464291
0.00397687
0.00263872
0.00177034
0.00140111
0.00127927
0.00124721
0.00124906
0.00128915
0.00143867
0.00188849
0.00279096
0.00320318
0.00302151
0.00140171
0.0113012
0.0253848
0.0140523
0.0125597
0.0126964
0.0133154
0.0141595
0.0150186
0.0156427
0.0157235
0.0150719
0.0138236
0.0122879
0.0108087
0.00937935
0.00798003
0.00645794
0.00363699
0.00347638
0.00572383
0.00632541
0.00619855
0.00529735
0.00247962
0.00117837
0.000850148
0.000777471
0.000763546
0.000765324
0.000786959
0.000904863
0.00160515
0.00377637
0.00446963
0.00435112
0.00215611
0.0145963
0.0359013
0.0173302
0.0139246
0.0133714
0.013621
0.0142586
0.0151105
0.0160399
0.0166535
0.0164595
0.0154411
0.0139875
0.0125337
0.0111882
0.00995403
0.00868094
0.00708509
0.00509061
0.00670473
0.00757492
0.00784162
0.00761678
0.00671377
0.00409243
0.00330866
0.00317627
0.00315454
0.00318571
0.00326245
0.00337983
0.00354338
0.0039149
0.00540548
0.00606759
0.00596874
0.00371739
0.017779
0.0465951
0.0212562
0.0151815
0.0137257
0.0135302
0.0138429
0.0144816
0.0155926
0.0167699
0.0171187
0.0163891
0.015072
0.0136677
0.012395
0.0112838
0.0102833
0.00937936
0.00878189
0.00892716
0.00910486
0.00912148
0.00890365
0.0084136
0.007694
0.00722321
0.00700463
0.00691981
0.00691944
0.0069865
0.00711427
0.00730199
0.00755853
0.00787333
0.00806235
0.00784312
0.00668986
0.0053166
0.00426074
0.00312419
0.0208749
0.0559734
0.0273108
0.0177979
0.0151715
0.0144645
0.0141437
0.0141297
0.0150311
0.0165198
0.017298
0.0168676
0.0156746
0.0143186
0.0131111
0.0121124
0.0113026
0.0106739
0.0102839
0.0101631
0.0101175
0.010025
0.00982347
0.00950909
0.00913757
0.00883242
0.00863956
0.00854016
0.00851525
0.0085561
0.00865949
0.00882292
0.00903409
0.00924686
0.00938273
0.00930832
0.00877776
0.00783647
0.0071706
0.00417628
0.0230959
0.0607723
0.036036
0.0244663
0.0202645
0.018069
0.0161448
0.0149196
0.0150181
0.0162453
0.0172367
0.0170048
0.015868
0.014531
0.0133769
0.0124836
0.0118098
0.0113118
0.0109769
0.0107821
0.010648
0.0105085
0.0103239
0.0100894
0.00983549
0.0096116
0.00944636
0.00934301
0.00929814
0.00931143
0.00938767
0.0095329
0.00973607
0.00994182
0.0100541
0.00998962
0.00961313
0.00864628
0.00822192
0.00478623
0.022912
0.0563877
0.0411222
0.0334308
0.0281885
0.0228874
0.018683
0.0161567
0.0154665
0.0162635
0.017185
0.0169153
0.0156747
0.0142858
0.0131956
0.0124151
0.0118535
0.0114348
0.0111261
0.0109048
0.0107333
0.0105743
0.0104021
0.0102107
0.0100131
0.00983254
0.00968623
0.00958119
0.00952092
0.00951257
0.00957175
0.00971986
0.00995728
0.010207
0.0103158
0.0102248
0.00996538
0.00966437
0.0106825
0.00479302
0.0209632
0.0274646
0.0247463
0.0218038
0.0191216
0.016933
0.0154003
0.0147857
0.0151882
0.0163381
0.017167
0.0164907
0.0148871
0.0134901
0.0125507
0.0119134
0.0114455
0.01108
0.0107901
0.0105625
0.0103789
0.0102168
0.0100578
0.00989496
0.00973272
0.00958087
0.00944982
0.00934611
0.00927591
0.00925085
0.00929406
0.00943844
0.00967688
0.00977167
0.00911692
0.00753489
0.00612215
0.00558562
0.00560158
0.00440622
0.00505537
0.00796209
0.0108351
0.0133317
0.0152832
0.0167685
0.0177398
0.017772
0.0165255
0.0146648
0.0131789
0.0121357
0.0114243
0.0109177
0.0105271
0.0102088
0.00994729
0.00973641
0.0095657
0.00941935
0.00928313
0.00915
0.00902081
0.00889833
0.00878722
0.00869302
0.00862231
0.00858528
0.00859727
0.00867574
0.00882226
0.00899994
0.00901775
0.00870166
0.00824378
0.0080943
0.00798648
0.00410675
0.00802632
0.0246232
0.0281632
0.026406
0.0230789
0.0197618
0.0169294
0.0148179
0.0131777
0.0118179
0.0107763
0.0100273
0.00950005
0.0091187
0.00883149
0.0086119
0.00844723
0.00832652
0.00823523
0.00815828
0.00808506
0.00801174
0.00794041
0.00787472
0.00780861
0.0077521
0.00771402
0.0077031
0.00772
0.00773158
0.00775071
0.00782286
0.00788863
0.00771343
0.00721327
0.00691733
0.00821057
0.00427191
0.00898358
0.00967813
0.0102776
0.0129482
0.0115765
0.00969551
0.0083903
0.00764933
0.00718595
0.00679789
0.00636153
0.00588255
0.00544749
0.00509164
0.00480255
0.00456071
0.00435369
0.00417682
0.00402981
0.00391247
0.00382127
0.00374921
0.00368888
0.00363478
0.00358397
0.00353862
0.0035023
0.00347004
0.00344429
0.00342951
0.00343326
0.00349606
0.00366281
0.00391896
0.00421413
0.00430038
0.00407884
0.00360923
0.0033387
0.00276309
)
;

boundaryField
{
    floor
    {
        type            kqRWallFunction;
        value           nonuniform List<scalar> 
36
(
0.0028596
0.000956163
0.00174844
0.00213193
0.00210819
0.00178676
0.00124013
0.000932837
0.000809163
0.00077045
0.000760692
0.000761322
0.000773822
0.000821291
0.000966692
0.00129133
0.00145914
0.00131608
0.000841417
0.000841417
0.00140171
0.00215611
0.00371739
0.0053166
0.00426074
0.00312419
0.0028596
0.00444391
0.00301949
0.00161858
0.000956163
0.00161858
0.00185951
0.00363699
0.00347638
0.00509061
)
;
    }
    ceiling
    {
        type            kqRWallFunction;
        value           nonuniform List<scalar> 
43
(
0.00898358
0.00967813
0.0102776
0.0129482
0.0115765
0.00969551
0.0083903
0.00764933
0.00718595
0.00679789
0.00636153
0.00588255
0.00544749
0.00509164
0.00480255
0.00456071
0.00435369
0.00417682
0.00402981
0.00391247
0.00382127
0.00374921
0.00368888
0.00363478
0.00358397
0.00353862
0.0035023
0.00347004
0.00344429
0.00342951
0.00343326
0.00349606
0.00366281
0.00391896
0.00421413
0.00430038
0.00407884
0.00360923
0.0033387
0.00276309
0.0209632
0.0274646
0.00802632
)
;
    }
    sWall
    {
        type            kqRWallFunction;
        value           uniform 0.00898358;
    }
    nWall
    {
        type            kqRWallFunction;
        value           nonuniform List<scalar> 6(0.00312419 0.00417628 0.00478623 0.00410675 0.00427191 0.00276309);
    }
    sideWalls
    {
        type            empty;
    }
    glass1
    {
        type            kqRWallFunction;
        value           nonuniform List<scalar> 9(0.00422419 0.00788897 0.0113012 0.0145963 0.017779 0.0208749 0.0230959 0.022912 0.0209632);
    }
    glass2
    {
        type            kqRWallFunction;
        value           nonuniform List<scalar> 2(0.00479302 0.00440622);
    }
    sun
    {
        type            kqRWallFunction;
        value           nonuniform List<scalar> 
14
(
0.00422419
0.00526745
0.00516542
0.00552498
0.00600166
0.00655302
0.00701841
0.00731559
0.00733535
0.0069872
0.00626447
0.00526942
0.00435195
0.00358015
)
;
    }
    Table_master
    {
        type            kqRWallFunction;
        value           nonuniform List<scalar> 9(0.00247962 0.00117837 0.000850148 0.000777471 0.000763546 0.000765324 0.000786959 0.000904863 0.00160515);
    }
    Table_slave
    {
        type            kqRWallFunction;
        value           nonuniform List<scalar> 9(0.00409243 0.00330866 0.00317627 0.00315454 0.00318571 0.00326245 0.00337983 0.00354338 0.0039149);
    }
    inlet
    {
        type            turbulentIntensityKineticEnergyInlet;
        intensity       0.05;
        value           uniform 0.000937501;
    }
    outlet
    {
        type            zeroGradient;
    }
}


// ************************************************************************* //
