/*--------------------------------*- C++ -*----------------------------------*\
  =========                 |
  \\      /  F ield         | OpenFOAM: The Open Source CFD Toolbox
   \\    /   O peration     | Website:  https://openfoam.org
    \\  /    A nd           | Version:  6
     \\/     M anipulation  |
\*---------------------------------------------------------------------------*/
FoamFile
{
    version     2.0;
    format      ascii;
    class       volScalarField;
    location    "20";
    object      nut;
}
// * * * * * * * * * * * * * * * * * * * * * * * * * * * * * * * * * * * * * //

dimensions      [0 2 -1 0 0 0 0];

internalField   nonuniform List<scalar> 
458
(
0.00145858
0.00162861
0.00161272
0.00166796
0.00173842
0.00181666
0.00188025
0.00191987
0.00192275
0.00187686
0.00177737
0.00162994
0.00148097
0.00134285
0.00119989
0.000693693
0.000938046
0.00103586
0.00103009
0.000948346
0.000790097
0.000685172
0.000638031
0.000622524
0.000618548
0.000618799
0.000623858
0.00064271
0.000697284
0.000805908
0.000856762
0.000813793
0.000650734
0.00199344
0.00692605
0.00745636
0.00843879
0.00919855
0.00984123
0.0105035
0.0111601
0.0117291
0.0120799
0.0120776
0.0116451
0.0106957
0.00902329
0.0063485
0.00149591
0.00123303
0.000902871
0.000967349
0.0042894
0.00566352
0.00572897
0.00473774
0.00282713
0.00207136
0.00174479
0.00162473
0.00158958
0.0015908
0.00163171
0.00177104
0.0021682
0.00335601
0.00393666
0.00347093
0.000839936
0.00238606
0.00938925
0.0097591
0.0117051
0.0125809
0.0129795
0.0134447
0.014158
0.0151446
0.0162231
0.0170196
0.0171959
0.0165542
0.0150283
0.0124449
0.00863923
0.00626163
0.00135287
0.00132267
0.006286
0.0085219
0.00843698
0.00619783
0.00111729
0.000770274
0.000654067
0.000625371
0.000619711
0.000620426
0.000629136
0.000674617
0.000898435
0.00400832
0.00541606
0.00484992
0.00104186
0.00271183
0.0109304
0.0101806
0.0122331
0.0128218
0.0126118
0.0125468
0.0130851
0.0143763
0.0162273
0.0180463
0.0192464
0.0194538
0.0186063
0.016756
0.0140599
0.0110796
0.00642502
0.00160059
0.00574554
0.00966746
0.0112809
0.0107252
0.00744453
0.00143501
0.00129032
0.00126426
0.00125997
0.00126624
0.00128147
0.0013044
0.00133563
0.00140379
0.00466479
0.00682695
0.00621173
0.00136799
0.00299307
0.0122358
0.0103659
0.0116427
0.0117159
0.0108178
0.010238
0.010535
0.011944
0.0143576
0.0170524
0.0192752
0.0204357
0.0204691
0.0194378
0.0175526
0.0151513
0.0121852
0.00949259
0.0114577
0.0132772
0.0140324
0.0135328
0.0117331
0.00904567
0.00853152
0.00835283
0.00829208
0.00829892
0.00835298
0.00844001
0.00854882
0.00873035
0.00976525
0.0100702
0.00893563
0.00523602
0.00163609
0.00146482
0.00125445
0.00324344
0.013357
0.011114
0.011055
0.0106212
0.00923234
0.00831676
0.00828114
0.00947633
0.0119908
0.0151074
0.018023
0.0201063
0.021046
0.0208114
0.019647
0.0179748
0.016166
0.0148862
0.0153254
0.0159766
0.0162003
0.0157949
0.0148215
0.0136358
0.0130621
0.0127814
0.0126483
0.0126019
0.0126078
0.0126296
0.0126147
0.0125094
0.0123201
0.0117169
0.0106447
0.00890547
0.00672099
0.00500284
0.00145045
0.00341191
0.0137532
0.0121324
0.0108994
0.0100838
0.00861838
0.0075121
0.00711551
0.00780354
0.00984705
0.0129058
0.0162021
0.0189838
0.0206957
0.0211288
0.020547
0.0194479
0.0182891
0.0174976
0.0173914
0.0174781
0.0174151
0.0170707
0.0164776
0.0158166
0.0153476
0.0150455
0.0148554
0.0147345
0.0146419
0.0145149
0.01424
0.013663
0.012679
0.0113363
0.00992289
0.00859584
0.00729289
0.00581308
0.00155299
0.00339847
0.0112769
0.0104548
0.00992575
0.00916763
0.00792215
0.00685886
0.00638209
0.0068085
0.00843346
0.0111744
0.0144595
0.0175667
0.0197249
0.0205563
0.0203234
0.0195885
0.018785
0.0181799
0.0178773
0.0177062
0.0175032
0.01719
0.016775
0.0163326
0.015957
0.0156659
0.0154429
0.0152611
0.0150769
0.0147991
0.0142465
0.0131828
0.0115445
0.0096386
0.00792679
0.00658386
0.0054835
0.00480003
0.00155424
0.00325087
0.00372125
0.00415219
0.00436895
0.00443172
0.00448478
0.00464401
0.00509502
0.00605908
0.0077838
0.0103074
0.0133156
0.0162654
0.0183343
0.0190462
0.0188676
0.0183182
0.0177062
0.0171926
0.0168275
0.0165537
0.0162972
0.0160133
0.0156967
0.0153728
0.0150713
0.0148083
0.014581
0.0143759
0.0141583
0.0138281
0.013144
0.0117608
0.00959936
0.00705624
0.0047362
0.003254
0.00258016
0.00228148
0.00149018
0.000972611
0.00177363
0.00276401
0.0038511
0.00495487
0.00611723
0.00745649
0.00909282
0.0110804
0.0132876
0.0149547
0.0158612
0.0160359
0.0157654
0.0153117
0.0148303
0.0144023
0.0140567
0.0137784
0.0135357
0.0133029
0.0130701
0.0128419
0.0126184
0.0124062
0.0122096
0.0120317
0.0118671
0.0116704
0.0112918
0.0104698
0.00916406
0.00756367
0.00603113
0.00492564
0.00439262
0.00424622
0.00143842
0.00201183
0.00495595
0.00700407
0.00801813
0.00835647
0.00844715
0.00856257
0.00893075
0.00956417
0.0101888
0.0105098
0.0105405
0.0103799
0.0101284
0.0098508
0.00958461
0.00935182
0.00916127
0.00900783
0.00887853
0.0087611
0.00864903
0.00854211
0.00844206
0.00832746
0.00821609
0.0081226
0.00806269
0.00803227
0.00793262
0.00770869
0.00731744
0.00669439
0.00585687
0.00505518
0.00463831
0.00434614
0.00146734
0.00212853
0.00220929
0.0022767
0.00255554
0.00241651
0.0022113
0.00205675
0.0019635
0.00190286
0.00185067
0.0017903
0.00172158
0.00165663
0.00160153
0.00155533
0.0015156
0.00148076
0.00145032
0.00142452
0.00140359
0.0013871
0.00137393
0.00136281
0.00135277
0.00134327
0.00133475
0.00132788
0.00132175
0.00131685
0.00131403
0.00131479
0.00132686
0.00135824
0.00140501
0.00145695
0.00147169
0.00143328
0.00134827
0.00129685
0.00117988
)
;

boundaryField
{
    floor
    {
        type            nutkWallFunction;
        Cmu             0.09;
        kappa           0.41;
        E               9.8;
        value           nonuniform List<scalar> 
36
(
0.000144125
8.40345e-05
0.000113528
0.000125066
0.000124387
0.000114741
9.57862e-05
8.29868e-05
7.71698e-05
7.52476e-05
7.47546e-05
7.47865e-05
7.54171e-05
7.77614e-05
8.45027e-05
9.77387e-05
0.000103851
9.86672e-05
7.87322e-05
7.87322e-05
0.000101806
0.000125753
0.000163385
0.000193551
0.000174324
0.000150374
0.000144125
0.000177833
0.000147937
0.000109305
8.40344e-05
0.000109305
0.000117004
0.000161692
0.000158248
0.000189627
)
;
    }
    ceiling
    {
        type            nutkWallFunction;
        Cmu             0.09;
        kappa           0.41;
        E               9.8;
        value           nonuniform List<scalar> 
43
(
0.000247202
0.000255914
0.000263161
0.000292984
0.000278233
0.000256284
0.000239623
0.000229519
0.000222923
0.000217214
0.000210571
0.000202976
0.000195773
0.00018964
0.000184479
0.000180027
0.000176111
0.000172683
0.000169771
0.000167405
0.000165538
0.000164046
0.000162784
0.000161642
0.000160562
0.00015959
0.000158807
0.000158107
0.000157547
0.000157224
0.000157306
0.000158672
0.000162235
0.000167537
0.000173414
0.000175088
0.00017075
0.000161101
0.000155223
0.000141765
0.000366339
0.000414718
0.000234454
)
;
    }
    sWall
    {
        type            nutkWallFunction;
        Cmu             0.09;
        kappa           0.41;
        E               9.8;
        value           uniform 0.000247269;
    }
    nWall
    {
        type            nutkWallFunction;
        Cmu             0.09;
        kappa           0.41;
        E               9.8;
        value           nonuniform List<scalar> 6(0.00015038 0.000172686 0.000184198 0.000171318 0.000174551 0.000141775);
    }
    sideWalls
    {
        type            empty;
    }
    glass1
    {
        type            nutkWallFunction;
        Cmu             0.09;
        kappa           0.41;
        E               9.8;
        value           nonuniform List<scalar> 9(0.00017381 0.00023321 0.000275683 0.000310357 0.000339936 0.000366017 0.000383439 0.000382045 0.000366764);
    }
    glass2
    {
        type            nutkWallFunction;
        Cmu             0.09;
        kappa           0.41;
        E               9.8;
        value           nonuniform List<scalar> 2(0.000184372 0.000177177);
    }
    sun
    {
        type            nutkWallFunction;
        Cmu             0.09;
        kappa           0.41;
        E               9.8;
        value           nonuniform List<scalar> 
14
(
0.000173615
0.000192699
0.000190929
0.000197078
0.000204898
0.000213525
0.000220499
0.00022482
0.000225104
0.000220042
0.000209067
0.000192735
0.00017608
0.000160482
)
;
    }
    Table_master
    {
        type            nutkWallFunction;
        Cmu             0.09;
        kappa           0.41;
        E               9.8;
        value           nonuniform List<scalar> 9(0.00013456 9.33702e-05 7.91504e-05 7.56014e-05 7.49004e-05 7.49903e-05 7.60749e-05 8.17115e-05 0.000108856);
    }
    Table_slave
    {
        type            nutkWallFunction;
        Cmu             0.09;
        kappa           0.41;
        E               9.8;
        value           nonuniform List<scalar> 9(0.000171019 0.000154554 0.000151565 0.000151068 0.000151781 0.000153518 0.000156133 0.000159693 0.000167455);
    }
    inlet
    {
        type            calculated;
        value           uniform 0.000167705;
    }
    outlet
    {
        type            calculated;
        value           nonuniform List<scalar> 2(0.00212853 0.00220929);
    }
}


// ************************************************************************* //
