/*--------------------------------*- C++ -*----------------------------------*\
  =========                 |
  \\      /  F ield         | OpenFOAM: The Open Source CFD Toolbox
   \\    /   O peration     | Website:  https://openfoam.org
    \\  /    A nd           | Version:  6
     \\/     M anipulation  |
\*---------------------------------------------------------------------------*/
FoamFile
{
    version     2.0;
    format      ascii;
    class       volScalarField;
    location    "20";
    object      T;
}
// * * * * * * * * * * * * * * * * * * * * * * * * * * * * * * * * * * * * * //

dimensions      [0 0 0 1 0 0 0];

internalField   nonuniform List<scalar> 
458
(
304.262
303.977
303.941
303.928
303.92
303.916
303.916
303.923
303.94
303.97
304.011
304.057
304.09
304.114
304.135
304.166
304.152
304.149
304.148
304.149
304.15
304.152
304.152
304.152
304.152
304.152
304.152
304.152
304.152
304.151
304.151
304.154
304.166
304.386
303.995
303.918
303.886
303.866
303.852
303.842
303.841
303.856
303.893
303.944
303.998
304.046
304.081
304.107
304.122
304.138
304.158
304.152
304.145
304.143
304.142
304.142
304.142
304.142
304.142
304.142
304.142
304.142
304.143
304.143
304.143
304.144
304.145
304.147
304.155
304.515
304.026
303.916
303.867
303.836
303.81
303.784
303.765
303.77
303.811
303.877
303.947
304.009
304.053
304.085
304.107
304.124
304.139
304.145
304.141
304.14
304.14
304.14
304.14
304.14
304.14
304.14
304.14
304.14
304.14
304.14
304.141
304.143
304.144
304.146
304.151
304.646
304.074
303.934
303.871
303.831
303.792
303.744
303.689
303.666
303.707
303.795
303.89
303.969
304.027
304.067
304.095
304.114
304.127
304.135
304.138
304.138
304.139
304.139
304.138
304.138
304.137
304.137
304.138
304.138
304.138
304.139
304.141
304.143
304.145
304.148
304.149
304.152
304.779
304.144
303.984
303.915
303.874
303.831
303.752
303.632
303.547
303.577
303.691
303.82
303.924
303.999
304.05
304.085
304.107
304.122
304.13
304.135
304.137
304.137
304.138
304.138
304.137
304.137
304.137
304.138
304.138
304.139
304.141
304.143
304.147
304.151
304.156
304.158
304.159
304.163
304.167
304.182
304.911
304.243
304.082
304.019
303.993
303.961
303.841
303.619
303.431
303.424
303.563
303.734
303.873
303.971
304.036
304.077
304.103
304.119
304.128
304.133
304.135
304.136
304.137
304.137
304.137
304.137
304.137
304.138
304.138
304.14
304.142
304.146
304.152
304.16
304.169
304.176
304.18
304.182
304.181
304.188
305.058
304.4
304.254
304.202
304.186
304.149
303.959
303.632
303.333
303.256
303.406
303.632
303.82
303.946
304.025
304.073
304.101
304.117
304.127
304.132
304.134
304.136
304.136
304.137
304.137
304.137
304.137
304.138
304.139
304.14
304.144
304.149
304.158
304.171
304.187
304.202
304.21
304.21
304.203
304.201
305.263
304.748
304.596
304.505
304.444
304.296
303.972
303.529
303.151
303.042
303.227
303.528
303.776
303.933
304.023
304.073
304.101
304.117
304.126
304.131
304.134
304.135
304.136
304.136
304.136
304.137
304.137
304.137
304.139
304.141
304.145
304.153
304.166
304.187
304.213
304.236
304.248
304.248
304.247
304.292
305.559
305.299
305.036
304.792
304.55
304.126
303.519
302.949
302.629
302.683
303.036
303.464
303.774
303.946
304.033
304.079
304.105
304.119
304.127
304.131
304.133
304.135
304.135
304.136
304.136
304.136
304.136
304.137
304.138
304.14
304.145
304.155
304.173
304.203
304.243
304.277
304.297
304.307
304.314
304.336
297.005
298.196
298.865
299.316
299.839
300.466
301.267
302.215
303.063
303.599
303.853
303.983
304.051
304.089
304.11
304.121
304.128
304.131
304.133
304.134
304.134
304.135
304.135
304.135
304.135
304.136
304.137
304.139
304.143
304.151
304.166
304.189
304.219
304.248
304.265
304.267
304.247
304.233
297.447
298.565
299.62
300.569
301.341
301.974
302.534
303.056
303.491
303.781
303.94
304.027
304.074
304.101
304.116
304.124
304.128
304.131
304.132
304.132
304.133
304.133
304.133
304.133
304.133
304.134
304.134
304.136
304.139
304.144
304.154
304.17
304.192
304.215
304.23
304.228
304.212
304.213
299.552
299.518
299.524
300.75
301.634
302.32
302.803
303.151
303.424
303.653
303.835
303.96
304.033
304.075
304.099
304.112
304.119
304.123
304.125
304.126
304.126
304.126
304.126
304.126
304.126
304.126
304.126
304.126
304.127
304.127
304.129
304.132
304.137
304.146
304.161
304.177
304.186
304.183
304.178
304.197
)
;

boundaryField
{
    floor
    {
        type            wallHeatTransfer;
        Tinf            uniform 305.2;
        alphaWall       uniform 0.24;
        value           nonuniform List<scalar> 
36
(
304.239
304.317
304.275
304.263
304.263
304.271
304.29
304.306
304.315
304.318
304.318
304.318
304.317
304.314
304.304
304.288
304.283
304.29
304.324
304.324
304.288
304.265
304.244
304.243
304.253
304.278
304.239
304.211
304.239
304.284
304.317
304.284
304.273
304.234
304.24
304.218
)
;
    }
    ceiling
    {
        type            wallHeatTransfer;
        Tinf            uniform 303.2;
        alphaWall       uniform 0.24;
        value           nonuniform List<scalar> 
43
(
299.775
299.737
299.737
300.88
301.721
302.372
302.828
303.154
303.409
303.622
303.79
303.904
303.97
304.007
304.027
304.038
304.043
304.045
304.046
304.046
304.046
304.045
304.045
304.044
304.044
304.043
304.043
304.043
304.043
304.043
304.044
304.048
304.054
304.064
304.081
304.095
304.102
304.096
304.088
304.099
305.456
305.216
297.814
)
;
    }
    sWall
    {
        type            wallHeatTransfer;
        Tinf            uniform 315.2;
        alphaWall       uniform 0.36;
        value           uniform 300.953;
    }
    nWall
    {
        type            wallHeatTransfer;
        Tinf            uniform 307.2;
        alphaWall       uniform 0.36;
        value           nonuniform List<scalar> 6(304.59 304.554 304.546 304.595 304.573 304.622);
    }
    sideWalls
    {
        type            empty;
    }
    glass1
    {
        type            wallHeatTransfer;
        Tinf            uniform 315.2;
        alphaWall       uniform 4.3;
        value           nonuniform List<scalar> 9(311.106 310.449 310.09 309.858 309.701 309.59 309.559 309.682 309.942);
    }
    glass2
    {
        type            wallHeatTransfer;
        Tinf            uniform 307.2;
        alphaWall       uniform 4.3;
        value           nonuniform List<scalar> 2(306.065 306.107);
    }
    sun
    {
        type            wallHeatTransfer;
        Tinf            uniform 305.2;
        alphaWall       uniform 0.24;
        value           nonuniform List<scalar> 
14
(
304.341
304.071
304.039
304.024
304.014
304.006
304.004
304.009
304.025
304.055
304.097
304.145
304.182
304.211
)
;
    }
    Table_master
    {
        type            zeroGradient;
    }
    Table_slave
    {
        type            zeroGradient;
    }
    inlet
    {
        type            fixedValue;
        value           uniform 295.15;
    }
    outlet
    {
        type            zeroGradient;
    }
}


// ************************************************************************* //
