/*--------------------------------*- C++ -*----------------------------------*\
  =========                 |
  \\      /  F ield         | OpenFOAM: The Open Source CFD Toolbox
   \\    /   O peration     | Website:  https://openfoam.org
    \\  /    A nd           | Version:  6
     \\/     M anipulation  |
\*---------------------------------------------------------------------------*/
FoamFile
{
    version     2.0;
    format      ascii;
    class       volVectorField;
    location    "20";
    object      U;
}
// * * * * * * * * * * * * * * * * * * * * * * * * * * * * * * * * * * * * * //

dimensions      [0 1 -1 0 0 0 0];

internalField   nonuniform List<vector> 
458
(
(0.0371292 0.0745481 0)
(-0.146793 0.018147 0)
(-0.155378 0.00608326 0)
(-0.167779 0.000982608 0)
(-0.170844 -0.00560228 0)
(-0.163159 -0.0129662 0)
(-0.144463 -0.0206333 0)
(-0.115776 -0.0270924 0)
(-0.080602 -0.0301667 0)
(-0.0443487 -0.0282571 0)
(-0.0123164 -0.0214476 0)
(0.0108609 -0.0113223 0)
(0.0207669 -0.00281373 0)
(0.0207626 0.00453223 0)
(0.00970773 0.0133897 0)
(0.0170262 0.00175932 0)
(-0.0024562 -0.00145582 0)
(0.00174992 -0.00296905 0)
(0.00542759 -0.00232041 0)
(0.00803925 -0.00140153 0)
(0.00902058 2.68381e-07 0)
(0.00876314 0.000304602 0)
(0.00845298 0.000226606 0)
(0.00831454 0.00017166 0)
(0.00823776 0.00016664 0)
(0.00814994 0.000199761 0)
(0.00798743 0.000302074 0)
(0.00756422 0.000547871 0)
(0.00644465 0.000771802 0)
(0.00607365 -0.000474581 0)
(0.00725528 -0.00102918 0)
(0.00855528 0.000584217 0)
(-0.0157006 0.00360426 0)
(0.178251 0.15386 0)
(-0.136204 0.0548782 0)
(-0.132845 0.0283257 0)
(-0.150227 0.0144794 0)
(-0.157552 -0.000572729 0)
(-0.154074 -0.0170371 0)
(-0.139851 -0.0338388 0)
(-0.115872 -0.0478404 0)
(-0.0854988 -0.0547572 0)
(-0.0539675 -0.0521229 0)
(-0.0262043 -0.0413273 0)
(-0.0049132 -0.0259732 0)
(0.00914832 -0.0103598 0)
(0.0173616 0.00232759 0)
(0.0224002 0.0122959 0)
(0.026915 0.0140443 0)
(0.0194212 0.0189306 0)
(-0.0292847 0.0279868 0)
(0.0280293 -0.000478057 0)
(0.00368992 -0.00269718 0)
(0.00424347 -0.00406763 0)
(0.00570013 -0.00398877 0)
(0.0073408 -0.00312926 0)
(0.00849362 -0.000311424 0)
(0.00846907 0.000397577 0)
(0.00831898 0.000344917 0)
(0.00832989 0.000270529 0)
(0.00835362 0.000264057 0)
(0.00836582 0.000324439 0)
(0.00837413 0.000484746 0)
(0.00817603 0.000823255 0)
(0.00742948 0.0011297 0)
(0.00818508 -0.000840253 0)
(0.00862301 0.000211318 0)
(0.0083807 0.00376385 0)
(-0.0292974 0.00761588 0)
(0.30094 0.230831 0)
(-0.143065 0.0909757 0)
(-0.11207 0.0521531 0)
(-0.132172 0.0273523 0)
(-0.142826 0.00259119 0)
(-0.142915 -0.0236835 0)
(-0.131812 -0.0503889 0)
(-0.110409 -0.0725403 0)
(-0.0822718 -0.0831929 0)
(-0.0530697 -0.0789642 0)
(-0.0277845 -0.0631928 0)
(-0.00863222 -0.0421975 0)
(0.00468433 -0.0215071 0)
(0.0130229 -0.0052351 0)
(0.018024 0.00586192 0)
(0.0190492 0.0102464 0)
(0.0154262 0.0139095 0)
(-0.0118341 0.0155102 0)
(0.0232216 -0.00626095 0)
(0.00375961 -0.00425036 0)
(0.00357443 -0.00428906 0)
(0.00404906 -0.00489378 0)
(0.00523099 -0.00543563 0)
(0.00849175 -0.00207872 0)
(0.00825234 -0.00216476 0)
(0.00800435 -0.00270742 0)
(0.00810932 -0.00292645 0)
(0.00820352 -0.00296585 0)
(0.00831773 -0.00291995 0)
(0.00850865 -0.00275365 0)
(0.00831614 -0.00225812 0)
(0.00839852 0.000535534 0)
(0.0155265 -0.00213232 0)
(0.0170825 0.00257732 0)
(0.0170381 0.00988366 0)
(-0.0271341 0.0183535 0)
(0.408706 0.29489 0)
(-0.15969 0.127629 0)
(-0.090192 0.0781423 0)
(-0.110897 0.0427029 0)
(-0.123696 0.0086749 0)
(-0.1262 -0.0279295 0)
(-0.1168 -0.0658988 0)
(-0.0968339 -0.0975826 0)
(-0.0704276 -0.112504 0)
(-0.0434901 -0.106233 0)
(-0.020916 -0.084701 0)
(-0.00468776 -0.0572819 0)
(0.00588355 -0.0313196 0)
(0.0121207 -0.0110636 0)
(0.0153998 0.00307991 0)
(0.0162177 0.0113954 0)
(0.0161478 0.0164995 0)
(0.014585 0.0180942 0)
(0.0170554 0.0180421 0)
(0.00905237 -0.000790006 0)
(0.00330348 -0.00228764 0)
(0.00172244 -0.00318473 0)
(0.000239041 -0.00408313 0)
(-0.00192169 -0.00459637 0)
(-0.00497931 -0.00147758 0)
(-0.00386602 -0.00147308 0)
(-0.00253315 -0.00182516 0)
(-0.00108104 -0.0023822 0)
(0.00128268 -0.00321785 0)
(0.00497837 -0.0043735 0)
(0.0103291 -0.00581979 0)
(0.0175579 -0.00732358 0)
(0.0279227 -0.00812769 0)
(0.0324666 -0.00612555 0)
(0.0346705 0.00275606 0)
(0.0360485 0.0153799 0)
(0.00944116 0.0415739 0)
(0.504214 0.346847 0)
(-0.181344 0.160322 0)
(-0.0645021 0.100205 0)
(-0.0805369 0.0569263 0)
(-0.0924679 0.0156472 0)
(-0.0945569 -0.0308125 0)
(-0.0846994 -0.0803573 0)
(-0.0666509 -0.121296 0)
(-0.0448204 -0.139706 0)
(-0.0235205 -0.130521 0)
(-0.00630143 -0.102648 0)
(0.00510156 -0.0684567 0)
(0.0111369 -0.0379895 0)
(0.0136873 -0.0143704 0)
(0.0141495 0.00199086 0)
(0.013505 0.0118611 0)
(0.01291 0.0166396 0)
(0.0125394 0.0159496 0)
(0.0108312 0.0100195 0)
(0.00669073 0.00328125 0)
(0.00297465 0.000479567 0)
(0.000630287 -0.00115087 0)
(-0.0012889 -0.00205485 0)
(-0.00300698 -0.00206748 0)
(-0.0038575 -0.000930928 0)
(-0.00343945 -0.00108986 0)
(-0.00250159 -0.00176769 0)
(-0.00107914 -0.0029129 0)
(0.001159 -0.00462083 0)
(0.00448417 -0.00692284 0)
(0.00916587 -0.00974956 0)
(0.015427 -0.0127214 0)
(0.0237235 -0.0144324 0)
(0.0331793 -0.012791 0)
(0.0445023 -0.00493816 0)
(0.0596452 0.00991132 0)
(0.075462 0.0323224 0)
(0.10389 0.0309253 0)
(0.101813 0.0440332 0)
(-0.0443201 0.0798271 0)
(0.583465 0.390283 0)
(-0.206601 0.1827 0)
(-0.0350319 0.108566 0)
(-0.0350026 0.0652687 0)
(-0.0400796 0.0217165 0)
(-0.0353711 -0.0335622 0)
(-0.0229388 -0.0934404 0)
(-0.00995123 -0.140304 0)
(0.000971081 -0.159672 0)
(0.00987481 -0.14671 0)
(0.016531 -0.113119 0)
(0.0195113 -0.073892 0)
(0.0188384 -0.039471 0)
(0.0160802 -0.0136982 0)
(0.0128605 0.00348783 0)
(0.0101697 0.0133778 0)
(0.00851461 0.0175154 0)
(0.00764321 0.0166779 0)
(0.00634995 0.0120695 0)
(0.00407481 0.00670431 0)
(0.00149541 0.00314957 0)
(-0.000567175 0.000904026 0)
(-0.00219969 -0.000371658 0)
(-0.0034104 -0.000869649 0)
(-0.00388702 -0.00092963 0)
(-0.00365138 -0.00156591 0)
(-0.00300858 -0.00272852 0)
(-0.0019411 -0.00446401 0)
(-0.000302383 -0.00691552 0)
(0.00207532 -0.0101978 0)
(0.00535988 -0.0142683 0)
(0.00979679 -0.0188093 0)
(0.0159873 -0.0227871 0)
(0.0249116 -0.0242172 0)
(0.0378176 -0.0206054 0)
(0.05532 -0.0108978 0)
(0.075397 0.00145776 0)
(0.0895031 0.00648826 0)
(0.093753 0.0370338 0)
(-0.0463495 0.101373 0)
(0.65999 0.428861 0)
(-0.219294 0.17506 0)
(0.00712246 0.078607 0)
(0.035978 0.052986 0)
(0.043856 0.0163475 0)
(0.0616645 -0.0448662 0)
(0.0739636 -0.104528 0)
(0.0767064 -0.146575 0)
(0.0702264 -0.162142 0)
(0.0589596 -0.147624 0)
(0.0477056 -0.111438 0)
(0.0369811 -0.0693275 0)
(0.0263999 -0.0334501 0)
(0.0169711 -0.00792748 0)
(0.00985525 0.00801076 0)
(0.00545014 0.0162968 0)
(0.00325678 0.0190358 0)
(0.00241563 0.0176529 0)
(0.00180062 0.0135501 0)
(0.000715292 0.00876548 0)
(-0.000732776 0.00502167 0)
(-0.00206547 0.00245582 0)
(-0.0031697 0.000831111 0)
(-0.00396657 -0.000139784 0)
(-0.00432038 -0.000847133 0)
(-0.00428075 -0.00186923 0)
(-0.00401056 -0.00336599 0)
(-0.00353583 -0.00548325 0)
(-0.00284183 -0.00839444 0)
(-0.00192452 -0.0122362 0)
(-0.000790621 -0.0170536 0)
(0.000634509 -0.0227506 0)
(0.00284698 -0.0288311 0)
(0.00707887 -0.0340236 0)
(0.0146062 -0.03575 0)
(0.0256581 -0.0312173 0)
(0.0403397 -0.0213273 0)
(0.0614726 -0.00665173 0)
(0.084695 0.0433873 0)
(-0.051616 0.150047 0)
(0.779049 0.426024 0)
(-0.0321824 0.147167 0)
(0.10798 0.0133062 0)
(0.16895 -0.0204392 0)
(0.188221 -0.0482021 0)
(0.20164 -0.0816926 0)
(0.20238 -0.114508 0)
(0.187268 -0.137362 0)
(0.157653 -0.142572 0)
(0.119612 -0.125274 0)
(0.0822914 -0.0899534 0)
(0.0515446 -0.0501368 0)
(0.0285719 -0.0178806 0)
(0.0126307 0.00343955 0)
(0.0032006 0.0149712 0)
(-0.00147136 0.019902 0)
(-0.00311622 0.0204504 0)
(-0.00318829 0.0180879 0)
(-0.00285729 0.0140243 0)
(-0.00283046 0.00963221 0)
(-0.0031951 0.00602194 0)
(-0.00371578 0.00340698 0)
(-0.00424865 0.00163031 0)
(-0.0046933 0.00041487 0)
(-0.00497363 -0.000588904 0)
(-0.00512972 -0.00177791 0)
(-0.00527521 -0.00336506 0)
(-0.00550085 -0.00552103 0)
(-0.0059281 -0.00839512 0)
(-0.0067742 -0.012077 0)
(-0.00841426 -0.0165785 0)
(-0.0113627 -0.0218969 0)
(-0.015941 -0.0280826 0)
(-0.0220217 -0.0347971 0)
(-0.0299211 -0.0400324 0)
(-0.039784 -0.0398634 0)
(-0.0447471 -0.0299343 0)
(-0.0270966 0.00127675 0)
(-0.0263901 0.0856158 0)
(-0.365371 0.215817 0)
(0.949936 0.384102 0)
(0.444425 0.256686 0)
(0.455966 0.194114 0)
(0.476548 0.119928 0)
(0.457621 0.0580463 0)
(0.413317 0.000486997 0)
(0.359778 -0.0463374 0)
(0.2996 -0.0760594 0)
(0.232577 -0.0849861 0)
(0.162403 -0.0725464 0)
(0.0974103 -0.0446687 0)
(0.0465209 -0.013892 0)
(0.0151496 0.00701465 0)
(-0.001087 0.0173868 0)
(-0.00839196 0.0216288 0)
(-0.0107816 0.0222769 0)
(-0.0104851 0.0205488 0)
(-0.00899972 0.017267 0)
(-0.00736708 0.0132141 0)
(-0.00617127 0.00923563 0)
(-0.00552394 0.00597156 0)
(-0.00527988 0.00356112 0)
(-0.00528881 0.00186927 0)
(-0.00543508 0.000653211 0)
(-0.00565302 -0.000374567 0)
(-0.0059678 -0.00150288 0)
(-0.00647972 -0.00291757 0)
(-0.00733173 -0.00474218 0)
(-0.0087565 -0.00700807 0)
(-0.0111839 -0.00957718 0)
(-0.0154388 -0.0120462 0)
(-0.0230556 -0.0137203 0)
(-0.0367136 -0.0137812 0)
(-0.0612837 -0.0111251 0)
(-0.104273 -0.0043646 0)
(-0.166725 0.00704323 0)
(-0.230927 0.0211913 0)
(-0.278478 0.0325803 0)
(-0.326575 0.0361517 0)
(-0.522444 0.0316858 0)
(0.25911 -0.0212438 0)
(0.296302 0.0185023 0)
(0.299133 -0.00192549 0)
(0.270948 -0.0254014 0)
(0.234893 -0.0371985 0)
(0.187576 -0.0375015 0)
(0.128478 -0.0257102 0)
(0.067129 -0.00491633 0)
(0.0190562 0.0140679 0)
(-0.00776577 0.0228555 0)
(-0.0193902 0.0249164 0)
(-0.0237832 0.0246054 0)
(-0.0238924 0.0231158 0)
(-0.0215831 0.0207066 0)
(-0.0181259 0.0175244 0)
(-0.0144794 0.0138503 0)
(-0.0113064 0.0100852 0)
(-0.00894234 0.00668232 0)
(-0.00740004 0.00395936 0)
(-0.00651273 0.00195423 0)
(-0.00609597 0.000533035 0)
(-0.00600443 -0.000506621 0)
(-0.00615692 -0.00138453 0)
(-0.00655981 -0.0023093 0)
(-0.00729754 -0.00340552 0)
(-0.0085051 -0.00471645 0)
(-0.0103798 -0.00612866 0)
(-0.0132081 -0.00724951 0)
(-0.0173698 -0.00721887 0)
(-0.0232996 -0.00453443 0)
(-0.031139 0.00267528 0)
(-0.0405661 0.0149641 0)
(-0.0521082 0.0295442 0)
(-0.0662487 0.0417601 0)
(-0.0779486 0.0481216 0)
(-0.0696621 0.0413547 0)
(0.0415698 -0.0214516 0)
(-0.221982 -0.180557 0)
(0.15281 0.260064 0)
(-0.0230162 0.133173 0)
(-0.0257923 0.0548299 0)
(-0.02892 0.0229461 0)
(-0.0373147 0.014727 0)
(-0.0490265 0.0150932 0)
(-0.0584115 0.0191674 0)
(-0.0639576 0.0239965 0)
(-0.0646505 0.0262746 0)
(-0.0606506 0.0246779 0)
(-0.0542668 0.0211619 0)
(-0.0470116 0.0175167 0)
(-0.039345 0.0140416 0)
(-0.031789 0.0106452 0)
(-0.0248386 0.00725607 0)
(-0.0188976 0.00393579 0)
(-0.014213 0.000850695 0)
(-0.0108286 -0.00179608 0)
(-0.00858833 -0.00388292 0)
(-0.0072356 -0.00544246 0)
(-0.00652491 -0.00660122 0)
(-0.00627144 -0.00751606 0)
(-0.00637069 -0.00833501 0)
(-0.00680839 -0.00913535 0)
(-0.00764147 -0.00994276 0)
(-0.0089621 -0.0108189 0)
(-0.0108851 -0.0116523 0)
(-0.0135029 -0.0121135 0)
(-0.0167003 -0.0114863 0)
(-0.0197741 -0.0082159 0)
(-0.0212054 -0.000649131 0)
(-0.0190072 0.0113494 0)
(-0.0118248 0.0247548 0)
(-0.000387808 0.0338394 0)
(0.0141691 0.0308041 0)
(0.0377184 0.00691791 0)
(0.109101 -0.0359916 0)
(-0.181828 -0.0843247 0)
(-0.317368 -0.451918 0)
(-0.563806 -0.140006 0)
(-0.413752 0.119028 0)
(-0.361953 0.02986 0)
(-0.261251 0.00411334 0)
(-0.221003 0.00322304 0)
(-0.200083 0.0131917 0)
(-0.18541 0.0262581 0)
(-0.169937 0.0388802 0)
(-0.150864 0.0491865 0)
(-0.128752 0.0558874 0)
(-0.106118 0.0592832 0)
(-0.0854116 0.0612385 0)
(-0.0674724 0.063119 0)
(-0.0522214 0.065203 0)
(-0.0395182 0.0674673 0)
(-0.0292546 0.0698268 0)
(-0.0213122 0.072162 0)
(-0.0155031 0.0743297 0)
(-0.0115329 0.0762163 0)
(-0.00901502 0.077796 0)
(-0.00755511 0.0791313 0)
(-0.00683163 0.0803183 0)
(-0.00662231 0.081425 0)
(-0.00680865 0.0824582 0)
(-0.0073509 0.0832825 0)
(-0.00826916 0.083708 0)
(-0.0096178 0.0839068 0)
(-0.0114009 0.0839683 0)
(-0.0134512 0.0841178 0)
(-0.015225 0.0847809 0)
(-0.0154715 0.0855606 0)
(-0.0122155 0.086027 0)
(-0.00346599 0.0878953 0)
(0.0153037 0.0915725 0)
(0.0391014 0.0943305 0)
(0.0631422 0.0938205 0)
(0.0825618 0.0919177 0)
(0.13014 0.0781435 0)
(-0.222867 0.0576481 0)
)
;

boundaryField
{
    floor
    {
        type            noSlip;
    }
    ceiling
    {
        type            noSlip;
    }
    sWall
    {
        type            noSlip;
    }
    nWall
    {
        type            noSlip;
    }
    sideWalls
    {
        type            empty;
    }
    glass1
    {
        type            noSlip;
    }
    glass2
    {
        type            noSlip;
    }
    sun
    {
        type            noSlip;
    }
    Table_master
    {
        type            noSlip;
    }
    Table_slave
    {
        type            noSlip;
    }
    inlet
    {
        type            fixedValue;
        value           uniform (0.46194 -0.191342 0);
    }
    outlet
    {
        type            zeroGradient;
    }
}


// ************************************************************************* //
