/*--------------------------------*- C++ -*----------------------------------*\
  =========                 |
  \\      /  F ield         | OpenFOAM: The Open Source CFD Toolbox
   \\    /   O peration     | Website:  https://openfoam.org
    \\  /    A nd           | Version:  6
     \\/     M anipulation  |
\*---------------------------------------------------------------------------*/
FoamFile
{
    version     2.0;
    format      ascii;
    class       volScalarField;
    location    "100";
    object      alphat;
}
// * * * * * * * * * * * * * * * * * * * * * * * * * * * * * * * * * * * * * //

dimensions      [1 -1 -1 0 0 0 0];

internalField   nonuniform List<scalar> 
459
(
0.00086807
0.000881575
0.000761311
0.000781747
0.000809607
0.000837411
0.000864772
0.000892251
0.000921072
0.000946999
0.000966925
0.000978499
0.000979563
0.000968504
0.00094003
0.000595249
0.000683821
0.000660508
0.000523374
0.000418848
0.000354086
0.000310004
0.000301334
0.000293935
0.000283402
0.000273717
0.000265558
0.000255288
0.000261816
0.000360805
0.000581877
0.000755012
0.000743265
0.000626128
0.00156023
0.00281355
0.00184431
0.00270627
0.00297438
0.00319327
0.00341574
0.00362072
0.00377666
0.0038917
0.00394023
0.00387871
0.00363802
0.00310869
0.00217717
0.000990785
0.000708272
0.000693556
0.00162353
0.00165629
0.001446
0.00112516
0.000765312
0.000606512
0.000625066
0.000580613
0.000557179
0.000536714
0.000517181
0.000508431
0.000516622
0.00082069
0.00140791
0.00192915
0.00198875
0.000724298
0.00216367
0.00492674
0.00200856
0.0035714
0.0043863
0.00465172
0.00484821
0.00501107
0.00512982
0.00520798
0.00521503
0.00509907
0.0047814
0.00416285
0.0031933
0.00203832
0.00103259
0.00102483
0.00250189
0.00207355
0.00165977
0.00134285
0.00106765
0.000384504
0.000296584
0.000270882
0.000262604
0.000268929
0.000301545
0.000366802
0.000466762
0.000659697
0.00181359
0.00242804
0.00188749
0.000812074
0.0027235
0.00752515
0.00268999
0.00349259
0.00500468
0.00539326
0.00558282
0.00573464
0.00585867
0.00596022
0.00603751
0.00604392
0.00589042
0.00544373
0.0045651
0.0032632
0.00192194
0.0011741
0.00218544
0.00222249
0.00194441
0.00169471
0.00146891
0.00121151
0.000990746
0.00102917
0.00107998
0.00114132
0.00121207
0.00128999
0.00138558
0.00143406
0.00143874
0.00197015
0.00238754
0.00274946
0.00127881
0.00323648
0.0103028
0.00430551
0.00333249
0.00491074
0.00556058
0.00583037
0.00602095
0.00618214
0.00632844
0.00653669
0.00679201
0.00703999
0.00719601
0.0071602
0.00685711
0.00629516
0.00556081
0.00488589
0.00448348
0.00430687
0.00418781
0.00407503
0.00398795
0.00394707
0.00401408
0.00417213
0.00440625
0.004682
0.00494577
0.00514519
0.00520755
0.00510932
0.00493395
0.00449696
0.00392493
0.00270411
0.00131742
0.00114833
0.00120795
0.00371552
0.0128507
0.007404
0.0044405
0.00437297
0.00501191
0.00552512
0.00587756
0.00610168
0.00623376
0.00649024
0.00687185
0.00734717
0.00784916
0.00827251
0.0084957
0.00842267
0.00805849
0.00752267
0.0069697
0.00649273
0.00612416
0.00583237
0.00557889
0.00535492
0.0052027
0.00516955
0.00526356
0.00543973
0.00561358
0.00570831
0.0056918
0.0055686
0.00544053
0.00538833
0.00500593
0.00427049
0.0032119
0.00259549
0.00133303
0.00412578
0.0145854
0.0115179
0.00789325
0.00554617
0.00476541
0.00500962
0.00550118
0.00586936
0.0059607
0.00615017
0.00646638
0.00692935
0.007519
0.00814609
0.00866371
0.00891478
0.00885764
0.00856194
0.00814927
0.00772456
0.00733938
0.0069896
0.00664758
0.00629749
0.00597324
0.00575415
0.00570531
0.00579517
0.00589488
0.00588089
0.00572698
0.0055063
0.0053536
0.00541965
0.00565946
0.00548548
0.004858
0.00414589
0.00161394
0.00415708
0.0132352
0.0120129
0.0110176
0.00882399
0.0070462
0.00613498
0.00586128
0.00592009
0.00592003
0.0059235
0.0060134
0.00623635
0.00663124
0.00719318
0.0078281
0.00830557
0.00852641
0.00850885
0.0083251
0.00806054
0.00777405
0.00748774
0.00720271
0.00691799
0.00664503
0.00641648
0.00630436
0.00633782
0.00637576
0.0062412
0.00590009
0.00544086
0.00498764
0.00464941
0.00442057
0.00408047
0.00358195
0.00310636
0.00164267
0.0039838
0.00461172
0.00838769
0.00926749
0.0088687
0.00799347
0.00713472
0.00648801
0.00607873
0.00581211
0.00565959
0.00559741
0.00561903
0.00574668
0.00601592
0.00642782
0.00689244
0.00728465
0.0075232
0.0075987
0.00754933
0.00742233
0.00725474
0.00707597
0.00692141
0.00684513
0.00689337
0.00699003
0.00709212
0.0071762
0.0070382
0.00660299
0.00595129
0.00516075
0.00433929
0.00364283
0.00311684
0.00278944
0.00259726
0.00188517
0.0172467
0.0177176
0.0114962
0.00920494
0.00791408
0.00705757
0.00645743
0.00601749
0.00568533
0.00543314
0.00524831
0.00513668
0.00511923
0.00522165
0.00544555
0.00574692
0.00604986
0.00628729
0.00642815
0.00647541
0.0064522
0.00639193
0.00633875
0.00635853
0.00654609
0.00697933
0.00758004
0.00810588
0.0083675
0.00833981
0.00847907
0.00880618
0.00896747
0.00843767
0.00742577
0.00644183
0.00577318
0.00197055
0.00714167
0.0151538
0.0109807
0.00902053
0.00783398
0.00696119
0.00627396
0.00571887
0.00526167
0.00488854
0.00455382
0.00427791
0.00408031
0.00397956
0.00398947
0.00410849
0.00430911
0.00454189
0.00475629
0.00492072
0.00502837
0.00509212
0.00513853
0.00520919
0.00536913
0.00569812
0.00620874
0.00670603
0.00704712
0.00722208
0.00740519
0.00771849
0.00800344
0.00802555
0.00772767
0.00718706
0.0055728
0.00193511
0.00379889
0.0044654
0.00526354
0.00420266
0.00383487
0.0034166
0.00297263
0.00263913
0.00236886
0.00214484
0.00195624
0.00179572
0.00166247
0.00154947
0.00145301
0.0013714
0.00130406
0.0012509
0.00121169
0.00118539
0.00116994
0.00116263
0.00116075
0.0011622
0.00116591
0.00117219
0.00118338
0.001204
0.00123823
0.00129625
0.00136971
0.00143606
0.00148166
0.0015418
0.00167124
0.00184359
0.00193844
0.00188905
0.00180643
0.00164701
)
;

boundaryField
{
    floor
    {
        type            compressible::alphatWallFunction;
        Prt             0.85;
        value           nonuniform List<scalar> 
29
(
0.000133717
8.35871e-05
9.67495e-05
9.32788e-05
7.27082e-05
5.65961e-05
4.63583e-05
3.92456e-05
3.78253e-05
3.66107e-05
3.48777e-05
3.32754e-05
3.19177e-05
3.02031e-05
3.12959e-05
4.74322e-05
8.15617e-05
0.000107153
0.000105428
8.81669e-05
8.81658e-05
0.000102627
0.000115416
0.000180898
0.000133716
8.35861e-05
9.81575e-05
0.000145674
0.000166458
)
;
    }
    ceiling
    {
        type            compressible::alphatWallFunction;
        Prt             0.85;
        value           nonuniform List<scalar> 
43
(
0.000502892
0.000583384
0.000678212
0.000551884
0.000507345
0.000456149
0.000401098
0.000359184
0.000324807
0.000295997
0.000271489
0.000250429
0.00023279
0.000217708
0.000204738
0.000193688
0.000184515
0.000177237
0.000171845
0.000168218
0.000166083
0.000165071
0.00016481
0.000165011
0.000165522
0.000166388
0.00016793
0.000170772
0.000175474
0.000183415
0.000193394
0.000202299
0.000208317
0.000216328
0.000233686
0.000256591
0.000269095
0.000262626
0.000251767
0.000230669
0.000525513
0.000601038
0.000896149
)
;
    }
    sWall
    {
        type            compressible::alphatWallFunction;
        Prt             0.85;
        value           uniform 0.000501668;
    }
    nWall
    {
        type            compressible::alphatWallFunction;
        Prt             0.85;
        value           nonuniform List<scalar> 6(0.000170866 0.000187965 0.000225787 0.000272802 0.000268199 0.000230269);
    }
    sideWalls
    {
        type            empty;
    }
    glass1
    {
        type            compressible::alphatWallFunction;
        Prt             0.85;
        value           nonuniform List<scalar> 9(0.000119692 0.000213527 0.000291798 0.000362509 0.000426088 0.000484599 0.000534158 0.000538094 0.000517531);
    }
    glass2
    {
        type            compressible::alphatWallFunction;
        Prt             0.85;
        value           nonuniform List<scalar> 2(0.000227627 0.000259471);
    }
    sun
    {
        type            compressible::alphatWallFunction;
        Prt             0.85;
        value           nonuniform List<scalar> 
14
(
0.000123498
0.000125407
0.00010807
0.000111037
0.000115068
0.000119073
0.000122999
0.000126928
0.000131033
0.000134712
0.000137532
0.000139166
0.000139314
0.000137751
)
;
    }
    heatsource1
    {
        type            compressible::alphatWallFunction;
        Prt             0.85;
        value           nonuniform List<scalar> 3(0.000186392 0.000163131 0.000171368);
    }
    heatsource2
    {
        type            compressible::alphatWallFunction;
        Prt             0.85;
        value           nonuniform List<scalar> 4(0.00014111 0.000100527 0.000100526 0.000146983);
    }
    Table_master
    {
        type            compressible::alphatWallFunction;
        Prt             0.85;
        value           nonuniform List<scalar> 9(5.13677e-05 3.7209e-05 3.29883e-05 3.16145e-05 3.26597e-05 3.80222e-05 4.85465e-05 6.42271e-05 9.33801e-05);
    }
    Table_slave
    {
        type            compressible::alphatWallFunction;
        Prt             0.85;
        value           nonuniform List<scalar> 9(0.000141099 0.000146505 0.000153616 0.000162152 0.000171932 0.000182634 0.00019567 0.000202252 0.000202894);
    }
    inlet
    {
        type            fixedValue;
        value           uniform 1.94e-05;
    }
    outlet
    {
        type            zeroGradient;
    }
}


// ************************************************************************* //
