/*--------------------------------*- C++ -*----------------------------------*\
  =========                 |
  \\      /  F ield         | OpenFOAM: The Open Source CFD Toolbox
   \\    /   O peration     | Website:  https://openfoam.org
    \\  /    A nd           | Version:  6
     \\/     M anipulation  |
\*---------------------------------------------------------------------------*/
FoamFile
{
    version     2.0;
    format      ascii;
    class       volScalarField;
    location    "100";
    object      epsilon;
}
// * * * * * * * * * * * * * * * * * * * * * * * * * * * * * * * * * * * * * //

dimensions      [0 2 -3 0 0 0 0];

internalField   nonuniform List<scalar> 
459
(
0.000145701
0.000152018
9.78875e-05
0.000105988
0.000117734
0.00013029
0.000143486
0.000157606
0.000173379
0.000188433
0.000200571
0.000207845
0.0002085
0.000201491
0.000184215
4.67126e-05
7.08212e-05
6.37472e-05
3.17099e-05
1.62674e-05
9.83337e-06
6.59761e-06
6.05473e-06
5.61677e-06
5.03304e-06
4.53299e-06
4.1378e-06
3.67511e-06
3.96596e-06
1.03931e-05
4.35511e-05
9.51579e-05
9.07289e-05
5.42293e-05
0.000848311
0.00199385
0.000169673
8.25483e-05
8.33855e-05
8.98299e-05
9.75754e-05
0.000106892
0.000118461
0.000131665
0.000145612
0.000159122
0.00016984
0.000173821
0.000172748
0.000215599
7.8703e-05
7.38396e-05
0.000147559
8.95796e-05
4.21965e-05
2.97736e-05
1.64291e-05
7.27313e-06
5.37781e-06
4.66614e-06
4.20245e-06
3.97267e-06
4.05023e-06
4.69036e-06
8.03533e-06
2.79646e-05
9.32331e-05
0.000143223
0.000166063
8.38756e-05
0.00226802
0.00682378
0.000515654
0.000110374
9.06541e-05
9.60061e-05
0.000105107
0.00011632
0.000129588
0.000144481
0.00015934
0.000172801
0.000183491
0.000190066
0.000193618
0.000203951
0.00024399
0.000238243
0.000238884
0.000111102
9.012e-05
8.74333e-05
8.71095e-05
1.25473e-05
5.75133e-06
4.3872e-06
3.99785e-06
4.29097e-06
6.04361e-06
1.08764e-05
2.24321e-05
6.34372e-05
0.000232388
0.00028543
0.000263499
0.000118431
0.00453363
0.0148433
0.00137557
0.000183375
0.000111029
0.000112955
0.00012408
0.000138288
0.000154617
0.000172712
0.000188731
0.000200771
0.000208458
0.000212639
0.00021639
0.00022866
0.00026875
0.000358642
0.000203634
0.000110814
9.39136e-05
0.000102685
0.000122588
0.000156588
0.000215701
0.000241799
0.000279415
0.000329799
0.000395038
0.000476294
0.000590354
0.000654678
0.000661159
0.000456793
0.00038524
0.000439234
0.0004635
0.00762404
0.0248443
0.00319389
0.00039063
0.000164103
0.00014846
0.000160369
0.000180299
0.000204582
0.000231826
0.000253019
0.000265733
0.000271201
0.000270475
0.000262454
0.000245531
0.000220491
0.00018224
0.000122288
9.65208e-05
9.04665e-05
9.54345e-05
0.00010564
0.000119261
0.000135399
0.000155748
0.000187111
0.000233134
0.000296554
0.000376439
0.000469328
0.000545216
0.000563182
0.000513542
0.00041778
0.000368951
0.000370003
0.000506631
0.00033541
0.000390665
0.011556
0.0333317
0.00681312
0.00124534
0.0004216
0.000275634
0.000258064
0.000273801
0.000304335
0.00034436
0.000366941
0.000373006
0.000370607
0.000364985
0.000354853
0.000333663
0.000295307
0.000242425
0.000188278
0.000148654
0.000127027
0.000119773
0.000120722
0.000126451
0.000136891
0.000156325
0.000191745
0.000249919
0.000334821
0.000441397
0.000553536
0.000649359
0.000708051
0.000717242
0.000686926
0.000549241
0.000473621
0.000453401
0.000422667
0.000524506
0.0158479
0.0367256
0.0137436
0.00498309
0.00205608
0.00101752
0.000702649
0.000595808
0.000568371
0.000587714
0.000573426
0.000537441
0.000498437
0.000466825
0.000441991
0.000414233
0.000373493
0.000318831
0.000260496
0.000211487
0.000178391
0.000160024
0.000151641
0.000149616
0.000154049
0.000170687
0.000210135
0.000284943
0.000401423
0.000547442
0.000694203
0.000813806
0.000899502
0.000972672
0.00108013
0.00121484
0.00122589
0.001063
0.000951011
0.000930831
0.0162529
0.039145
0.0232445
0.016851
0.00971718
0.00525868
0.00304364
0.00197265
0.00144175
0.00116081
0.000964972
0.000803458
0.000675267
0.000581674
0.000518385
0.000471986
0.000427456
0.000376537
0.000321971
0.000272456
0.000234523
0.000209317
0.000194279
0.000186448
0.000185622
0.000197992
0.000239135
0.00033339
0.00049395
0.000696114
0.000891342
0.00103942
0.00113569
0.00121802
0.0013518
0.00157616
0.00179092
0.00189054
0.00192388
0.000984588
0.014355
0.0222091
0.041057
0.0322913
0.0209301
0.012876
0.0078707
0.0049295
0.00324674
0.00222012
0.00157463
0.0011606
0.000887613
0.000705171
0.000584104
0.000504503
0.000448501
0.000402157
0.000358928
0.000319454
0.000286929
0.000263035
0.000247235
0.000238112
0.000235445
0.000243108
0.000274617
0.000373325
0.000580726
0.00086598
0.00115359
0.00136712
0.00146259
0.00143944
0.00133901
0.0012626
0.0012513
0.00134915
0.00154004
0.00148921
0.107672
0.122928
0.0403484
0.0190454
0.0103804
0.00617693
0.00393353
0.00264465
0.0018553
0.00134743
0.00101081
0.000783548
0.000629403
0.000526217
0.000458507
0.000413922
0.000383084
0.000360507
0.000343984
0.000332712
0.000326053
0.000323474
0.000325435
0.000335163
0.000361969
0.000428705
0.000571088
0.000814974
0.00117729
0.00172901
0.00247358
0.00345374
0.00440028
0.0046191
0.003995
0.00305856
0.00217361
0.00169838
0.0804737
0.0672871
0.0247403
0.0133228
0.00803168
0.00513102
0.00342766
0.00238068
0.00170989
0.00126626
0.000964522
0.000756087
0.000612067
0.000514739
0.000452765
0.00041813
0.000404072
0.000404213
0.000412846
0.000425632
0.000439966
0.000454963
0.000471381
0.000492086
0.000522989
0.000572666
0.000646747
0.000736391
0.000852639
0.00103386
0.00133077
0.00180807
0.00241739
0.00292339
0.00300539
0.00264921
0.00211588
0.00160906
0.01217
0.0197571
0.0323558
0.0166064
0.0126412
0.0089446
0.00589127
0.00412224
0.00298075
0.00221232
0.00167834
0.00129803
0.00102987
0.000833725
0.00068743
0.000577904
0.000496817
0.00043845
0.000398442
0.000372995
0.000358539
0.000351793
0.000350015
0.000351254
0.000354538
0.000360195
0.000370492
0.000390068
0.000424096
0.000486293
0.000573171
0.000659247
0.000721974
0.000812293
0.00103598
0.00139324
0.0016205
0.00149902
0.00131025
0.000993114
)
;

boundaryField
{
    floor
    {
        Cmu             0.09;
        kappa           0.41;
        E               9.8;
        type            epsilonWallFunction;
        value           nonuniform List<scalar> 
29
(
0.000184215
4.67126e-05
7.08212e-05
6.37472e-05
3.17099e-05
1.62674e-05
9.83337e-06
6.59761e-06
6.05473e-06
5.61677e-06
5.03304e-06
4.53299e-06
4.1378e-06
3.67511e-06
3.96596e-06
1.03931e-05
4.35511e-05
9.51579e-05
9.07289e-05
5.42293e-05
5.42293e-05
8.38756e-05
0.000118431
0.0004635
0.000184215
4.67126e-05
7.38396e-05
0.000238243
0.000358642
)
;
    }
    ceiling
    {
        Cmu             0.09;
        kappa           0.41;
        E               9.8;
        type            epsilonWallFunction;
        value           nonuniform List<scalar> 
43
(
0.01217
0.0197571
0.0323558
0.0166064
0.0126412
0.0089446
0.00589127
0.00412224
0.00298075
0.00221232
0.00167834
0.00129803
0.00102987
0.000833725
0.00068743
0.000577904
0.000496817
0.00043845
0.000398442
0.000372995
0.000358539
0.000351793
0.000350015
0.000351254
0.000354538
0.000360195
0.000370492
0.000390068
0.000424096
0.000486293
0.000573171
0.000659247
0.000721974
0.000812293
0.00103598
0.00139324
0.0016205
0.00149902
0.00131025
0.000993114
0.014355
0.0222091
0.0804737
)
;
    }
    sWall
    {
        Cmu             0.09;
        kappa           0.41;
        E               9.8;
        type            epsilonWallFunction;
        value           uniform 0.01217;
    }
    nWall
    {
        Cmu             0.09;
        kappa           0.41;
        E               9.8;
        type            epsilonWallFunction;
        value           nonuniform List<scalar> 6(0.000390665 0.000524506 0.000930831 0.00169838 0.00160906 0.000993114);
    }
    sideWalls
    {
        type            empty;
    }
    glass1
    {
        Cmu             0.09;
        kappa           0.41;
        E               9.8;
        type            epsilonWallFunction;
        value           nonuniform List<scalar> 9(0.000145701 0.000848311 0.00226802 0.00453363 0.00762404 0.011556 0.0158479 0.0162529 0.014355);
    }
    glass2
    {
        Cmu             0.09;
        kappa           0.41;
        E               9.8;
        type            epsilonWallFunction;
        value           nonuniform List<scalar> 2(0.000984588 0.00148921);
    }
    sun
    {
        Cmu             0.09;
        kappa           0.41;
        E               9.8;
        type            epsilonWallFunction;
        value           nonuniform List<scalar> 
14
(
0.000145701
0.000152018
9.78875e-05
0.000105988
0.000117734
0.00013029
0.000143486
0.000157606
0.000173379
0.000188433
0.000200571
0.000207845
0.0002085
0.000201491
)
;
    }
    heatsource1
    {
        Cmu             0.09;
        kappa           0.41;
        E               9.8;
        type            epsilonWallFunction;
        value           nonuniform List<scalar> 3(0.000506631 0.00033541 0.000390665);
    }
    heatsource2
    {
        Cmu             0.09;
        kappa           0.41;
        E               9.8;
        type            epsilonWallFunction;
        value           nonuniform List<scalar> 4(0.000215599 7.8703e-05 7.8703e-05 0.00024399);
    }
    Table_master
    {
        Cmu             0.09;
        kappa           0.41;
        E               9.8;
        type            epsilonWallFunction;
        value           nonuniform List<scalar> 9(1.25473e-05 5.75133e-06 4.3872e-06 3.99785e-06 4.29097e-06 6.04361e-06 1.08764e-05 2.24321e-05 6.34372e-05);
    }
    Table_slave
    {
        Cmu             0.09;
        kappa           0.41;
        E               9.8;
        type            epsilonWallFunction;
        value           nonuniform List<scalar> 9(0.000215701 0.000241799 0.000279415 0.000329799 0.000395038 0.000476294 0.000590354 0.000654678 0.000661159);
    }
    inlet
    {
        type            turbulentMixingLengthDissipationRateInlet;
        mixingLength    0.01;
        phi             phi;
        k               k;
        value           uniform 0.000101881;
    }
    outlet
    {
        type            zeroGradient;
    }
}


// ************************************************************************* //
