/*--------------------------------*- C++ -*----------------------------------*\
  =========                 |
  \\      /  F ield         | OpenFOAM: The Open Source CFD Toolbox
   \\    /   O peration     | Website:  https://openfoam.org
    \\  /    A nd           | Version:  6
     \\/     M anipulation  |
\*---------------------------------------------------------------------------*/
FoamFile
{
    version     2.0;
    format      ascii;
    class       volScalarField;
    location    "100";
    object      nut;
}
// * * * * * * * * * * * * * * * * * * * * * * * * * * * * * * * * * * * * * //

dimensions      [0 2 -1 0 0 0 0];

internalField   nonuniform List<scalar> 
459
(
0.000743895
0.0007545
0.000651552
0.000669055
0.000692911
0.000716718
0.000740142
0.000763668
0.00078834
0.00081053
0.000827579
0.00083747
0.000838359
0.000828868
0.000804479
0.000508943
0.000584637
0.000564701
0.000447461
0.000358091
0.000302691
0.000264952
0.0002575
0.000251147
0.00024213
0.000233843
0.000226869
0.0002181
0.000223682
0.000308277
0.000497276
0.000645264
0.000635189
0.000535091
0.00133827
0.0024086
0.00157863
0.0023165
0.00254609
0.00273355
0.00292408
0.00309962
0.00323316
0.00333166
0.00337316
0.00332036
0.00311414
0.0026608
0.00186327
0.000847827
0.000605901
0.000593025
0.00138811
0.00141607
0.00123627
0.000961903
0.000654161
0.000518254
0.00053395
0.000495913
0.000475868
0.000458375
0.000441694
0.000434243
0.000441303
0.000701233
0.00120359
0.00164903
0.00169972
0.000619007
0.00185742
0.00421907
0.00171957
0.00305764
0.00375555
0.00398304
0.0041515
0.00429112
0.00439294
0.00445992
0.00446588
0.00436635
0.00409394
0.00356385
0.00273334
0.00174441
0.000883561
0.000876437
0.00213955
0.0017733
0.00141951
0.00114848
0.000913035
0.000328519
0.000253313
0.000231332
0.000224254
0.000229658
0.000257527
0.000313297
0.000398756
0.000563778
0.00155122
0.00207595
0.00161348
0.000694142
0.00233981
0.0064468
0.0023035
0.00299081
0.00428604
0.00461925
0.00478201
0.00491241
0.00501892
0.00510606
0.00517222
0.00517739
0.00504531
0.00466192
0.00390865
0.00279329
0.00164478
0.00100463
0.00186979
0.00190168
0.00166393
0.00145038
0.0012572
0.00103694
0.000848008
0.000880912
0.000924411
0.000976927
0.00103749
0.00110418
0.00118597
0.00122742
0.00123137
0.00168605
0.00204287
0.00235203
0.00109391
0.00278247
0.00883041
0.00368802
0.00285434
0.00420657
0.00476383
0.0049956
0.0051595
0.00529812
0.00542383
0.00560239
0.00582092
0.00603278
0.00616545
0.00613353
0.00587263
0.00539029
0.00476077
0.00418258
0.00383809
0.00368709
0.0035853
0.00348882
0.0034143
0.00337931
0.00343668
0.00357198
0.00377238
0.00400836
0.00423404
0.00440456
0.00445771
0.00437337
0.00422294
0.00384847
0.00335839
0.00231347
0.00112705
0.000982375
0.00103362
0.00319625
0.01102
0.00634531
0.00380469
0.00374689
0.00429488
0.00473541
0.00503827
0.00523115
0.00534496
0.00556514
0.00589222
0.00629919
0.00672852
0.00709001
0.00727972
0.00721568
0.00690256
0.0064429
0.00596898
0.00556038
0.00524471
0.0049948
0.00477768
0.00458583
0.0044554
0.00442689
0.0045072
0.00465779
0.00480633
0.00488713
0.0048727
0.00476692
0.00465689
0.00461168
0.0042838
0.003654
0.002748
0.00222049
0.00114049
0.00355111
0.0125177
0.00988033
0.00676856
0.00475469
0.0040852
0.00429498
0.00471714
0.00503368
0.00511279
0.00527577
0.00554709
0.00594386
0.00644881
0.00698535
0.00742763
0.00764124
0.00759086
0.0073364
0.00698211
0.00661781
0.00628756
0.00598774
0.0056946
0.00539455
0.00511661
0.00492867
0.00488645
0.00496291
0.00504779
0.00503538
0.00490328
0.00471404
0.00458295
0.004639
0.00484358
0.00469411
0.00415687
0.00354732
0.00138095
0.0035811
0.0113774
0.0103225
0.00946257
0.00757446
0.00604633
0.00526361
0.00502866
0.00507941
0.00507984
0.00508321
0.00516047
0.00535163
0.00569001
0.0061713
0.00671471
0.00712278
0.00731075
0.00729447
0.00713598
0.00690853
0.00666249
0.00641676
0.00617221
0.00592797
0.00569375
0.00549748
0.00540078
0.00542863
0.00546036
0.00534457
0.00505212
0.00465868
0.0042704
0.00398056
0.0037844
0.00349321
0.00306661
0.00265962
0.00140684
0.0034359
0.00397389
0.00721999
0.00797252
0.00762451
0.00686855
0.00612844
0.00557165
0.0052195
0.00499012
0.00485884
0.0048052
0.0048235
0.00493272
0.00516329
0.00551604
0.00591376
0.00624916
0.00645269
0.00651645
0.00647329
0.00636374
0.00621952
0.00606584
0.00593296
0.00586718
0.00590801
0.00599
0.00607633
0.00614724
0.0060282
0.00565504
0.00509684
0.00441993
0.00371659
0.00312027
0.00266991
0.00238962
0.00222517
0.00161541
0.0147116
0.0152136
0.00987734
0.00790871
0.00679879
0.0060622
0.00554613
0.00516788
0.00488228
0.0046654
0.00450638
0.00441021
0.00439486
0.00448234
0.00467398
0.00493199
0.00519122
0.00539419
0.00551432
0.00555422
0.00553375
0.00548157
0.00543552
0.00545203
0.00561234
0.00598309
0.00649709
0.00694661
0.00716952
0.0071445
0.00726286
0.00754236
0.00768014
0.00722638
0.00635988
0.00551716
0.0049438
0.00168756
0.00610408
0.0130013
0.00943035
0.00774872
0.0067295
0.00597945
0.00538883
0.00491177
0.00451886
0.00419818
0.00391051
0.00367336
0.00350346
0.00341671
0.00342494
0.0035268
0.00369864
0.00389803
0.00408159
0.00422225
0.00431419
0.00436847
0.00440789
0.0044681
0.00460487
0.00488652
0.00532376
0.00574938
0.00604092
0.00618995
0.00634592
0.00661326
0.00685616
0.00687414
0.00661843
0.00615499
0.0047723
0.00165724
0.0032519
0.003822
0.00450516
0.00360673
0.00329327
0.0029347
0.00255336
0.00226684
0.00203463
0.00184215
0.0016801
0.00154218
0.00142769
0.00133059
0.00124771
0.00117757
0.00111969
0.00107399
0.00104026
0.00101761
0.00100428
0.000997934
0.000996243
0.000997414
0.00100052
0.00100582
0.00101533
0.00103293
0.00106219
0.00111184
0.00117471
0.00123146
0.00127044
0.00132183
0.00143251
0.00157985
0.00166077
0.00161818
0.0015472
0.00141062
)
;

boundaryField
{
    floor
    {
        type            nutkWallFunction;
        Cmu             0.09;
        kappa           0.41;
        E               9.8;
        value           nonuniform List<scalar> 
29
(
9.74293e-05
6.08949e-05
7.04649e-05
6.79404e-05
5.29781e-05
4.12543e-05
3.38002e-05
2.86177e-05
2.75804e-05
2.66939e-05
2.54311e-05
2.42638e-05
2.3275e-05
2.20271e-05
2.28231e-05
3.45685e-05
5.93988e-05
7.80059e-05
7.67484e-05
6.42011e-05
6.4201e-05
7.47161e-05
8.40259e-05
0.00013171
9.74293e-05
6.08949e-05
7.14965e-05
0.000106068
0.000121237
)
;
    }
    ceiling
    {
        type            nutkWallFunction;
        Cmu             0.09;
        kappa           0.41;
        E               9.8;
        value           nonuniform List<scalar> 
43
(
0.000366009
0.00042453
0.000493524
0.000402643
0.000370386
0.000333082
0.00029289
0.00026228
0.000237174
0.000216132
0.000198232
0.000182851
0.000169968
0.000158953
0.000149479
0.000141407
0.000134705
0.000129387
0.000125445
0.000122791
0.000121225
0.000120479
0.000120281
0.000120419
0.000120783
0.000121405
0.000122521
0.000124584
0.000128002
0.000133779
0.000141039
0.000147516
0.000151888
0.000157709
0.000170328
0.000186974
0.000196043
0.000191303
0.000183372
0.000168007
0.000385231
0.000440217
0.000651182
)
;
    }
    sWall
    {
        type            nutkWallFunction;
        Cmu             0.09;
        kappa           0.41;
        E               9.8;
        value           uniform 0.000366087;
    }
    nWall
    {
        type            nutkWallFunction;
        Cmu             0.09;
        kappa           0.41;
        E               9.8;
        value           nonuniform List<scalar> 6(0.00012465 0.00013708 0.000164615 0.000198982 0.000195633 0.000168022);
    }
    sideWalls
    {
        type            empty;
    }
    glass1
    {
        type            nutkWallFunction;
        Cmu             0.09;
        kappa           0.41;
        E               9.8;
        value           nonuniform List<scalar> 9(9.0076e-05 0.000160022 0.000218138 0.000270538 0.000317609 0.000360904 0.000397574 0.000400671 0.00038575);
    }
    glass2
    {
        type            nutkWallFunction;
        Cmu             0.09;
        kappa           0.41;
        E               9.8;
        value           nonuniform List<scalar> 2(0.000167649 0.000191047);
    }
    sun
    {
        type            nutkWallFunction;
        Cmu             0.09;
        kappa           0.41;
        E               9.8;
        value           nonuniform List<scalar> 
14
(
9.00962e-05
9.13862e-05
7.87656e-05
8.09266e-05
8.38613e-05
8.67779e-05
8.96364e-05
9.24964e-05
9.54846e-05
9.81627e-05
0.000100214
0.000101402
0.000101508
0.000100367
)
;
    }
    heatsource1
    {
        type            nutkWallFunction;
        Cmu             0.09;
        kappa           0.41;
        E               9.8;
        value           nonuniform List<scalar> 3(0.000135537 0.00011862 0.000124639);
    }
    heatsource2
    {
        type            nutkWallFunction;
        Cmu             0.09;
        kappa           0.41;
        E               9.8;
        value           nonuniform List<scalar> 4(0.000102636 7.3097e-05 7.3097e-05 0.000106904);
    }
    Table_master
    {
        type            nutkWallFunction;
        Cmu             0.09;
        kappa           0.41;
        E               9.8;
        value           nonuniform List<scalar> 9(3.73056e-05 2.70135e-05 2.39464e-05 2.29483e-05 2.37071e-05 2.76014e-05 3.52457e-05 4.66394e-05 6.78331e-05);
    }
    Table_slave
    {
        type            nutkWallFunction;
        Cmu             0.09;
        kappa           0.41;
        E               9.8;
        value           nonuniform List<scalar> 9(0.000102654 0.000106588 0.000111763 0.000117975 0.000125091 0.000132876 0.000142357 0.00014714 0.000147601);
    }
    inlet
    {
        type            calculated;
        value           uniform 0.000100623;
    }
    outlet
    {
        type            calculated;
        value           nonuniform List<scalar> 2(0.0032519 0.003822);
    }
}


// ************************************************************************* //
