/*--------------------------------*- C++ -*----------------------------------*\
  =========                 |
  \\      /  F ield         | OpenFOAM: The Open Source CFD Toolbox
   \\    /   O peration     | Website:  https://openfoam.org
    \\  /    A nd           | Version:  6
     \\/     M anipulation  |
\*---------------------------------------------------------------------------*/
FoamFile
{
    version     2.0;
    format      ascii;
    class       surfaceScalarField;
    location    "100";
    object      phi;
}
// * * * * * * * * * * * * * * * * * * * * * * * * * * * * * * * * * * * * * //

dimensions      [1 0 -1 0 0 0 0];

internalField   nonuniform List<scalar> 
852
(
-0.00250782
0.00257864
-0.00257214
6.44488e-05
-0.00265937
8.73607e-05
-0.00282051
0.000161259
-0.00298879
0.000168398
-0.00312788
0.000139212
-0.00321528
8.75184e-05
-0.00323263
1.7463e-05
-0.00316204
-7.04711e-05
-0.0029855
-0.000176429
-0.00269002
-0.000295359
-0.00227036
-0.000419538
-0.00171557
-0.000554677
-0.000969767
-0.000745681
-0.00096589
-0.000684764
0.00069039
-0.000505461
-0.000179239
-0.000102564
-0.000402842
0.000149178
-0.000251696
0.000137768
1.14545e-05
-0.000111983
0.00024978
-0.000287365
0.000175374
-0.000229
-5.83835e-05
-0.000103916
-0.000125105
1.52055e-05
-0.000119133
0.000132667
-0.000117468
0.000241029
-0.000108359
0.000286312
-4.52671e-05
0.000199981
8.63672e-05
5.08436e-05
0.000149182
0.000218617
-0.000167656
0.000635757
-0.000417007
0.000838176
-0.000202296
0.000843849
-0.00181002
0.00456807
-0.0023191
0.000573657
-0.00259906
0.000367443
-0.00281892
0.000381241
-0.00301339
0.000362986
-0.00317117
0.000297119
-0.00327769
0.000194157
-0.00331871
5.86017e-05
-0.00328112
-0.000107946
-0.00315248
-0.000304951
-0.00291976
-0.00052796
-0.00257069
-0.000768478
-0.00210034
-0.0010249
-0.00155688
-0.00128902
-0.0010367
-0.00148594
0.000281422
-0.00131804
0.000281497
0.000826574
-0.0001211
0.000540618
0.000106805
8.98564e-05
4.79944e-05
-3.20126e-05
-0.000129742
0.000106773
-0.000127236
9.62499e-05
0.000260396
-3.28531e-05
0.00030455
-2.24062e-05
-6.88239e-05
-7.39066e-06
-0.000140129
4.4696e-06
-0.000130999
1.65295e-05
-0.000129527
3.01008e-05
-0.00012192
4.49534e-05
-6.00993e-05
3.02927e-05
0.00010106
-4.25498e-05
0.000222087
0.000119919
-0.000329979
0.000324512
-0.000621447
0.000296627
-0.000174284
0.00115567
-0.001332
0.00616295
-0.00202336
0.00126514
-0.00240134
0.000745554
-0.00266899
0.00064901
-0.00289079
0.000584904
-0.00307306
0.000479517
-0.00320936
0.000330577
-0.00328993
0.000139298
-0.00330635
-9.14075e-05
-0.00325346
-0.00035771
-0.00312914
-0.000652156
-0.00293708
-0.00096041
-0.00269237
-0.00126947
-0.00242894
-0.00155231
-0.00217829
-0.00173645
-0.00178403
-0.00171215
-0.00150239
-0.000860601
0.000758288
-0.00108078
0.000327102
-0.00111347
8.08162e-05
-0.00108225
-0.000160796
-0.000869568
-0.000339715
-7.75804e-05
-0.000531354
0.000227224
0.000158654
1.87122e-05
-0.00011212
-0.000241468
-0.000363181
-0.000423037
-0.00032171
-9.93447e-05
0.00019545
-0.000624622
-0.000620023
0.000194168
-0.00125382
0.000459597
-7.51646e-05
-0.00098474
0.00747799
-0.00173536
0.00201588
-0.00211603
0.00112635
-0.0024023
0.000935403
-0.00263092
0.000813649
-0.00281844
0.000667161
-0.00296732
0.000479591
-0.00307248
0.00024458
-0.00312872
-3.50337e-05
-0.00313811
-0.000348187
-0.0031151
-0.000675031
-0.00308327
-0.000992103
-0.00307601
-0.00127659
-0.00313201
-0.00149617
-0.00326721
-0.0016011
-0.00345702
-0.00152219
-0.00390655
-0.00105271
-0.00341034
-0.000476851
-0.00274618
9.42801e-05
-0.00264622
0.000227294
-0.00263605
7.08109e-05
-0.00268002
-0.000116674
-0.00274472
-0.000274855
-0.00294353
-0.000332381
-0.00268955
-0.000253979
-0.00241548
-0.000274064
-0.00206265
-0.00035284
-0.00159133
-0.000471321
-0.00096297
-0.000628366
-0.000156665
-0.000806311
0.000785007
-0.000941673
0.00170771
-0.000922702
0.00248493
-0.000777208
0.00232329
-0.00046283
0.00217953
0.000338068
0.00166881
0.000970427
0.00161553
-0.000730993
0.00859639
-0.00148495
0.00276997
-0.00175149
0.00139303
-0.00199984
0.00118388
-0.00221117
0.00102511
-0.00237378
0.000829904
-0.00249629
0.000602229
-0.00258129
0.000329714
-0.00262831
1.21232e-05
-0.00264342
-0.000332937
-0.00264984
-0.000668463
-0.00267622
-0.00096558
-0.00274765
-0.001205
-0.00287678
-0.00136689
-0.00305741
-0.00142031
-0.00326779
-0.00131164
-0.00334432
-0.000976018
-0.00326955
-0.000551444
-0.00296958
-0.000205517
-0.00267932
-6.27998e-05
-0.00251193
-9.64158e-05
-0.00243755
-0.000190912
-0.00242267
-0.00028959
-0.00240956
-0.000345347
-0.0022825
-0.0003809
-0.00209102
-0.000465405
-0.0018307
-0.000613026
-0.00147834
-0.000823553
-0.00102135
-0.00108523
-0.000464432
-0.0013631
0.000176237
-0.00158221
0.000873264
-0.00161958
0.00151655
-0.00142034
0.00195478
-0.000900914
0.00225763
3.53616e-05
0.0022805
0.000947692
0.00258492
0.00131124
0.00123441
0.00135044
-0.000505759
0.00174013
-0.00044408
-0.000689776
0.00972335
-0.00135741
0.00343774
-0.00124571
0.00128147
-0.00132016
0.00125847
-0.00154461
0.0012497
-0.00169886
0.000984295
-0.00177964
0.000683147
-0.00181439
0.000364606
-0.00181492
1.27916e-05
-0.00179897
-0.000348742
-0.00179671
-0.000670574
-0.00183425
-0.000927888
-0.00192562
-0.00111346
-0.00206899
-0.00122336
-0.00224677
-0.00124237
-0.00241691
-0.00114133
-0.00248199
-0.000910774
-0.00241657
-0.000616706
-0.00224909
-0.000372844
-0.00206987
-0.000241859
-0.00194738
-0.000218766
-0.00188422
-0.000253923
-0.00186406
-0.000309621
-0.00184582
-0.000363449
-0.00179641
-0.000430188
-0.00171506
-0.00054663
-0.00159552
-0.000732458
-0.0014253
-0.000993665
-0.00119876
-0.00131167
-0.00092396
-0.00163778
-0.00060821
-0.00189783
-0.000223648
-0.00200401
0.000233095
-0.00187694
0.000758672
-0.00142635
0.00139958
-0.000605399
0.00201251
0.0003349
0.0025022
0.00082171
0.00285536
0.00099744
0.00294019
0.00165547
0.00256673
-0.000873272
0.0110801
-0.000919353
0.00348396
-0.000119278
0.000481542
6.49457e-05
0.0010744
-0.000283145
0.00159795
-0.000543337
0.00124464
-0.000645427
0.000785384
-0.00066687
0.000386197
-0.00064149
-1.24403e-05
-0.000611636
-0.000378445
-0.000618369
-0.000663688
-0.000681031
-0.000865067
-0.000803989
-0.000990344
-0.000975624
-0.00105155
-0.00116883
-0.00104899
-0.00134054
-0.000969458
-0.00143852
-0.000812624
-0.00143794
-0.000617116
-0.00136644
-0.00044419
-0.00127406
-0.000334081
-0.00120265
-0.000290032
-0.00116567
-0.000290763
-0.00116
-0.000315158
-0.00117162
-0.000351706
-0.00119282
-0.000408866
-0.0012283
-0.000511042
-0.00127983
-0.000680839
-0.00134306
-0.00093035
-0.00141345
-0.00124119
-0.00148761
-0.00156351
-0.0015507
-0.00183461
-0.00156809
-0.00198647
-0.00149056
-0.00195433
-0.0012361
-0.00168066
-0.000676086
-0.00116525
0.000210585
-0.000551545
0.00130344
-0.000270909
0.00244607
-0.00014495
0.0026301
0.00147166
0.00526877
0.00215573
0.00946745
0.00291772
0.00272211
0.00330753
9.18805e-05
0.00274778
0.00163431
0.00212957
0.00221632
0.00170928
0.00166509
0.00141538
0.00107944
0.00121651
0.000585232
0.00108782
0.000116405
0.000992047
-0.000282516
0.000885779
-0.000557263
0.0007387
-0.000717826
0.000548261
-0.000799739
0.000323292
-0.000826415
8.41625e-05
-0.000809688
-0.000132035
-0.00075308
-0.00028644
-0.000658042
-0.000363351
-0.000540032
-0.000378934
-0.000428438
-0.00036431
-0.000348543
-0.000347316
-0.000306871
-0.00034279
-0.000295142
-0.000356105
-0.000301706
-0.000389414
-0.000318268
-0.000452327
-0.000345836
-0.000567653
-0.000395612
-0.00076252
-0.000485885
-0.0010551
-0.000637697
-0.00144951
-0.000846706
-0.00193565
-0.00107727
-0.00248331
-0.00128682
-0.00304214
-0.00142748
-0.00354348
-0.00145283
-0.00390982
-0.00131414
-0.00411124
-0.000963612
-0.00423749
-0.000425035
-0.00460171
9.36286e-05
-0.00510687
0.00036052
-0.00427493
0.000640018
0.00138247
0.0100766
0.0127982
0.0116935
0.00119673
0.00822097
0.00510696
0.00657266
0.00386477
0.00541225
0.00282564
0.00454082
0.00195103
0.003937
0.0011892
0.00346612
0.00058744
0.00303917
0.000144595
0.00265127
-0.000169201
0.00230494
-0.000371335
0.00198818
-0.000482817
0.00168967
-0.000527731
0.00140704
-0.000526877
0.00115045
-0.000496302
0.000938661
-0.000446072
0.000784588
-0.000385776
0.000684868
-0.000328537
0.000623107
-0.000286608
0.000580962
-0.00026456
0.000545134
-0.000259156
0.000507255
-0.000263678
0.000460431
-0.000271305
0.000392134
-0.00027741
0.000275281
-0.000278644
5.95093e-05
-0.000270017
-0.000319458
-0.000258662
-0.000905457
-0.000260635
-0.00170453
-0.000278102
-0.0026926
-0.000298603
-0.00381905
-0.000300857
-0.00500921
-0.000262469
-0.00616086
-0.000162271
-0.00716497
4.07256e-05
-0.00800281
0.000413033
-0.00883636
0.00092742
-0.00963797
0.00116239
-0.00795911
-0.00103857
-0.00616918
-0.000884559
0.00345567
0.00261601
0.0016065
0.00400311
0.0024778
0.0041937
0.00263519
0.00416373
0.00198114
0.00409715
0.00125593
0.00398664
0.000698101
0.00381917
0.00031222
0.00359553
5.46007e-05
0.00333385
-0.000109493
0.0030599
-0.000208693
0.00278885
-0.000256514
0.00252937
-0.000267211
0.00228774
-0.000254487
0.00207176
-0.0002299
0.00188932
-0.000203156
0.0017434
-0.000182419
0.00162979
-0.000172819
0.00154022
-0.000174812
0.00146614
-0.000184896
0.00140042
-0.000197797
0.00133737
-0.000208105
0.00127113
-0.000211018
0.00119402
-0.000201409
0.00109579
-0.00017166
0.000953285
-0.000116058
0.000733253
-4.05108e-05
0.000426452
2.8794e-05
4.33995e-05
8.45753e-05
-0.000368056
0.000110767
-0.000731275
0.000100959
-0.00102688
0.000133605
-0.00132581
0.000339933
-0.0015936
0.000681085
-0.00147571
0.000809763
-0.000272988
-4.00955e-05
0.000809304
-0.00212055
-0.00527344
-0.00111474
0.00457951
0.000362949
0.000128921
0.00155432
0.00128655
0.00243144
0.00175821
0.0031102
0.00130252
0.00354664
0.00081965
0.00377027
0.000474623
0.00383676
0.000245887
0.00379307
9.84547e-05
0.00368068
3.06197e-06
0.00353037
-5.82105e-05
0.00336324
-8.9209e-05
0.00319493
-9.87217e-05
0.00303521
-9.45806e-05
0.00288965
-8.41528e-05
0.00276083
-7.41473e-05
0.00264842
-6.98161e-05
0.00254943
-7.36393e-05
0.00245953
-8.47185e-05
0.00237461
-9.97876e-05
0.00229192
-0.000114927
0.00221071
-0.000126725
0.0021326
-0.000132742
0.00206209
-0.000130738
0.00200621
-0.000115643
0.00196903
-7.87405e-05
0.00194737
-1.87251e-05
0.00192326
5.30204e-05
0.00187082
0.000137111
0.0017853
0.00019636
0.00170529
0.000181071
0.00168569
0.000153418
0.00180162
0.000224342
0.00210417
0.000378925
0.00254753
0.000366788
0.00261342
-0.000105602
0.0017469
-0.00125361
-0.00342943
-0.00562506
-0.00684879
-0.00225775
-0.00212074
-0.000827051
0.000938414
0.00224896
0.00307746
0.00356179
0.00381827
0.00392822
0.0039437
0.00389883
0.00382387
0.00374032
0.00366183
0.00359465
0.00353832
0.00348708
0.0034327
0.00336785
0.00328847
0.00319444
0.00308909
0.00297817
0.00286969
0.00277667
0.0027208
0.00272506
0.00280092
0.00296062
0.00317935
0.00338278
0.00355859
0.00380514
0.00420595
0.00459477
0.00451235
0.00328327
)
;

boundaryField
{
    floor
    {
        type            calculated;
        value           nonuniform List<scalar> 
29
(
0
0
0
0
0
0
0
0
0
0
0
0
0
0
0
0
0
0
0
0
-5.56128e-06
-1.50829e-05
-2.29368e-05
-2.17646e-05
-3.75536e-06
-5.55371e-06
-1.49906e-05
-1.86904e-05
-1.92038e-05
)
;
    }
    ceiling
    {
        type            calculated;
        value           nonuniform List<scalar> 
43
(
-1.46393e-05
-1.30561e-05
-1.14116e-05
-7.96259e-06
-6.99894e-06
-7.10726e-06
-7.87225e-06
-8.69254e-06
-9.54929e-06
-1.043e-05
-1.13313e-05
-1.22516e-05
-1.31634e-05
-1.40779e-05
-1.49949e-05
-1.59043e-05
-1.67883e-05
-1.76236e-05
-1.83884e-05
-1.90706e-05
-1.96733e-05
-2.0213e-05
-2.07108e-05
-2.11845e-05
-2.16414e-05
-2.20733e-05
-2.24487e-05
-2.27123e-05
-2.28211e-05
-2.26902e-05
-2.24456e-05
-2.22884e-05
-2.23156e-05
-2.22856e-05
-2.18539e-05
-2.12818e-05
-2.13409e-05
-2.24661e-05
-2.388e-05
-2.58471e-05
2.28532e-06
6.44886e-07
-8.96895e-06
)
;
    }
    sWall
    {
        type            calculated;
        value           uniform -0.000151181;
    }
    nWall
    {
        type            calculated;
        value           nonuniform List<scalar> 6(-6.16959e-05 -7.04549e-05 -7.17468e-05 -8.60939e-05 -9.66887e-05 -0.000119774);
    }
    sideWalls
    {
        type            empty;
        value           nonuniform 0();
    }
    glass1
    {
        type            calculated;
        value           nonuniform List<scalar> 9(-7.06899e-05 -0.000179292 -0.00026275 -0.00033018 -0.000387285 -0.000437065 -0.000483369 -0.000542949 -0.000611347);
    }
    glass2
    {
        type            calculated;
        value           nonuniform List<scalar> 2(-0.000388436 -0.000407157);
    }
    sun
    {
        type            calculated;
        value           uniform 0;
    }
    heatsource1
    {
        type            calculated;
        value           nonuniform List<scalar> 3(2.0624e-07 2.06675e-07 2.07189e-07);
    }
    heatsource2
    {
        type            calculated;
        value           nonuniform List<scalar> 4(5.16912e-08 5.18591e-08 0 0);
    }
    Table_master
    {
        type            calculated;
        value           nonuniform List<scalar> 9(-1.55966e-07 -1.56117e-07 -1.56182e-07 -1.56204e-07 -1.56164e-07 -1.56101e-07 -1.56036e-07 -1.55964e-07 -1.55851e-07);
    }
    Table_slave
    {
        type            calculated;
        value           nonuniform List<scalar> 9(1.54439e-07 1.54518e-07 1.54597e-07 1.547e-07 1.54844e-07 1.55042e-07 1.55046e-07 1.54799e-07 1.54548e-07);
    }
    inlet
    {
        type            calculated;
        value           uniform -0.00137426;
    }
    outlet
    {
        type            calculated;
        value           nonuniform List<scalar> 2(0.005791 0.00123689);
    }
}


// ************************************************************************* //
