/*--------------------------------*- C++ -*----------------------------------*\
  =========                 |
  \\      /  F ield         | OpenFOAM: The Open Source CFD Toolbox
   \\    /   O peration     | Website:  https://openfoam.org
    \\  /    A nd           | Version:  6
     \\/     M anipulation  |
\*---------------------------------------------------------------------------*/
FoamFile
{
    version     2.0;
    format      ascii;
    class       volScalarField;
    location    "100";
    object      T;
}
// * * * * * * * * * * * * * * * * * * * * * * * * * * * * * * * * * * * * * //

dimensions      [0 0 0 1 0 0 0];

internalField   nonuniform List<scalar> 
459
(
301.809
301.422
301.413
301.419
301.424
301.428
301.432
301.434
301.436
301.436
301.433
301.428
301.42
301.411
301.403
301.124
301.105
301.103
301.105
301.101
301.069
301.006
300.958
300.92
300.9
300.884
300.877
300.884
300.892
300.915
300.983
300.995
300.977
300.981
302.078
301.492
301.448
301.457
301.469
301.479
301.487
301.493
301.498
301.499
301.495
301.484
301.465
301.439
301.404
301.365
301.278
301.132
301.113
301.101
301.099
301.082
301.031
300.932
300.843
300.804
300.786
300.776
300.777
300.791
300.836
300.918
301.072
301.042
300.997
300.984
302.325
301.587
301.502
301.511
301.53
301.548
301.563
301.576
301.584
301.587
301.582
301.566
301.538
301.497
301.446
301.391
301.345
301.18
301.169
301.178
301.194
301.198
301.172
300.895
300.79
300.754
300.743
300.745
300.764
300.802
300.862
300.967
301.224
301.104
301.048
301.029
302.55
301.699
301.566
301.568
301.595
301.623
301.649
301.671
301.687
301.696
301.692
301.674
301.639
301.588
301.523
301.451
301.38
301.332
301.3
301.331
301.366
301.392
301.408
301.418
301.428
301.432
301.436
301.438
301.439
301.438
301.429
301.419
301.406
301.381
301.326
301.26
301.245
302.756
301.828
301.651
301.629
301.66
301.698
301.736
301.771
301.8
301.818
301.822
301.807
301.773
301.723
301.662
301.597
301.537
301.491
301.465
301.464
301.48
301.491
301.497
301.5
301.501
301.501
301.5
301.496
301.489
301.478
301.465
301.449
301.432
301.409
301.373
301.325
301.284
301.269
301.263
301.333
302.933
301.984
301.795
301.726
301.731
301.769
301.816
301.864
301.907
301.94
301.954
301.948
301.919
301.872
301.811
301.746
301.685
301.635
301.603
301.586
301.58
301.579
301.577
301.575
301.572
301.567
301.559
301.546
301.529
301.509
301.489
301.471
301.451
301.426
301.392
301.349
301.312
301.287
301.27
301.285
303.091
302.218
302.073
301.965
301.887
301.877
301.907
301.952
302.003
302.048
302.075
302.078
302.059
302.02
301.964
301.899
301.835
301.779
301.736
301.706
301.687
301.675
301.666
301.659
301.651
301.64
301.623
301.599
301.569
301.538
301.513
301.493
301.474
301.45
301.418
301.375
301.338
301.318
301.299
301.305
303.343
302.705
302.58
302.432
302.268
302.164
302.118
302.11
302.128
302.157
302.18
302.187
302.178
302.151
302.108
302.049
301.986
301.927
301.876
301.836
301.806
301.784
301.767
301.753
301.739
301.723
301.699
301.663
301.618
301.575
301.544
301.524
301.51
301.495
301.476
301.457
301.453
301.471
301.491
301.579
303.696
303.424
303.103
302.921
302.725
302.57
302.461
302.391
302.352
302.324
302.304
302.288
302.272
302.249
302.218
302.176
302.125
302.071
302.019
301.973
301.935
301.904
301.878
301.857
301.838
301.817
301.791
301.748
301.691
301.635
301.594
301.572
301.569
301.578
301.594
301.613
301.632
301.653
301.678
301.736
300.36
302.351
302.532
302.532
302.495
302.455
302.425
302.401
302.38
302.36
302.339
302.317
302.292
302.262
302.226
302.185
302.142
302.099
302.06
302.025
301.994
301.967
301.942
301.917
301.89
301.855
301.81
301.758
301.704
301.649
301.61
301.583
301.568
301.568
301.574
301.573
301.532
301.55
300.952
302.093
302.395
302.465
302.466
302.451
302.433
302.416
302.4
302.384
302.367
302.349
302.329
302.308
302.283
302.256
302.226
302.193
302.161
302.129
302.098
302.07
302.042
302.016
301.988
301.957
301.92
301.879
301.834
301.788
301.741
301.689
301.634
301.592
301.567
301.545
301.53
301.548
301.403
301.368
301.369
302.174
302.374
302.437
302.44
302.432
302.421
302.41
302.399
302.387
302.375
302.363
302.349
302.335
302.32
302.304
302.286
302.266
302.246
302.223
302.2
302.176
302.151
302.126
302.1
302.072
302.043
302.009
301.972
301.936
301.905
301.866
301.805
301.73
301.664
301.614
301.572
301.564
)
;

boundaryField
{
    floor
    {
        type            wallHeatTransfer;
        Tinf            uniform 305.2;
        alphaWall       uniform 0.24;
        value           nonuniform List<scalar> 
29
(
301.9
301.858
301.776
301.791
301.908
302.026
302.101
302.138
302.121
302.11
302.12
302.132
302.148
302.18
302.168
301.973
301.754
301.638
301.63
301.716
301.716
301.648
301.635
301.657
301.9
301.858
301.792
301.673
301.761
)
;
    }
    ceiling
    {
        type            wallHeatTransfer;
        Tinf            uniform 303.2;
        alphaWall       uniform 0.24;
        value           nonuniform List<scalar> 
43
(
301.481
301.438
301.43
302.215
302.409
302.474
302.48
302.477
302.471
302.465
302.459
302.452
302.445
302.438
302.43
302.42
302.41
302.398
302.385
302.369
302.352
302.332
302.312
302.29
302.268
302.245
302.221
302.195
302.166
302.132
302.093
302.057
302.025
301.986
301.923
301.845
301.779
301.735
301.701
301.704
303.675
303.416
301.009
)
;
    }
    sWall
    {
        type            wallHeatTransfer;
        Tinf            uniform 315.2;
        alphaWall       uniform 0.36;
        value           uniform 302.285;
    }
    nWall
    {
        type            wallHeatTransfer;
        Tinf            uniform 307.2;
        alphaWall       uniform 0.36;
        value           nonuniform List<scalar> 6(302.241 302.138 302.043 302.158 302.164 302.259);
    }
    sideWalls
    {
        type            empty;
    }
    glass1
    {
        type            wallHeatTransfer;
        Tinf            uniform 315.2;
        alphaWall       uniform 4.3;
        value           nonuniform List<scalar> 9(311.816 310.509 309.731 309.198 308.824 308.543 308.351 308.473 308.779);
    }
    glass2
    {
        type            wallHeatTransfer;
        Tinf            uniform 307.2;
        alphaWall       uniform 4.3;
        value           nonuniform List<scalar> 2(305.116 305.021);
    }
    sun
    {
        type            wallHeatTransfer;
        Tinf            uniform 305.2;
        alphaWall       uniform 0.24;
        value           nonuniform List<scalar> 
14
(
302.278
301.94
301.989
301.983
301.974
301.965
301.955
301.946
301.936
301.926
301.916
301.907
301.9
301.896
)
;
    }
    heatsource1
    {
        type            fixedGradient;
        gradient        uniform 0;
    }
    heatsource2
    {
        type            fixedGradient;
        gradient        uniform 0;
    }
    Table_master
    {
        type            zeroGradient;
    }
    Table_slave
    {
        type            zeroGradient;
    }
    inlet
    {
        type            fixedValue;
        value           uniform 291.15;
    }
    outlet
    {
        type            zeroGradient;
    }
}


// ************************************************************************* //
