/*--------------------------------*- C++ -*----------------------------------*\
  =========                 |
  \\      /  F ield         | OpenFOAM: The Open Source CFD Toolbox
   \\    /   O peration     | Website:  https://openfoam.org
    \\  /    A nd           | Version:  6
     \\/     M anipulation  |
\*---------------------------------------------------------------------------*/
FoamFile
{
    version     2.0;
    format      ascii;
    class       volVectorField;
    location    "100";
    object      U;
}
// * * * * * * * * * * * * * * * * * * * * * * * * * * * * * * * * * * * * * //

dimensions      [0 1 -1 0 0 0 0];

internalField   nonuniform List<vector> 
459
(
(0.110842 0.0678197 0)
(-0.140191 -0.00158772 0)
(-0.110743 0.00130115 0)
(-0.117309 0.00330354 0)
(-0.124754 0.00325083 0)
(-0.13157 0.00223083 0)
(-0.136577 0.000613613 0)
(-0.138937 -0.00149549 0)
(-0.137916 -0.00409185 0)
(-0.132729 -0.00726505 0)
(-0.12241 -0.0109955 0)
(-0.105732 -0.0153372 0)
(-0.0826131 -0.0208796 0)
(-0.0602417 -0.0287998 0)
(-0.0653412 -0.0373296 0)
(0.0265519 0.0113244 0)
(-0.0297941 -0.0106819 0)
(-0.0169211 -0.0142205 0)
(-0.000896669 -0.00954643 0)
(0.00766022 -0.00282269 0)
(0.00224021 0.00547032 0)
(-0.00945667 0.00287139 0)
(-0.0112336 -0.00239229 0)
(-0.00711306 -0.00368474 0)
(-0.00207426 -0.00335099 0)
(0.003082 -0.00320758 0)
(0.00781173 -0.0030949 0)
(0.0118986 -0.00164417 0)
(0.0104769 0.002534 0)
(0.00246042 0.00396305 0)
(0.00805057 -0.00903846 0)
(0.0179005 -0.0238203 0)
(0.0376056 -0.0166575 0)
(-0.0132358 0.011369 0)
(0.32019 0.149491 0)
(-0.167228 0.0116876 0)
(-0.103085 0.0090068 0)
(-0.116121 0.0116044 0)
(-0.125223 0.0115574 0)
(-0.132986 0.00962901 0)
(-0.138778 0.00636819 0)
(-0.142049 0.00196126 0)
(-0.142182 -0.00357945 0)
(-0.138645 -0.0102554 0)
(-0.13078 -0.0178863 0)
(-0.117864 -0.0262528 0)
(-0.0997581 -0.0356375 0)
(-0.0782215 -0.0467616 0)
(-0.0569895 -0.0578852 0)
(-0.0361385 -0.0625453 0)
(0.0323679 0.0047759 0)
(0.132078 0.01463 0)
(0.0333358 0.00469104 0)
(0.000341857 -0.00414289 0)
(-0.00450728 -0.00575506 0)
(-0.000246701 -0.000346358 0)
(0.00643198 0.0132614 0)
(0.00266134 0.0102408 0)
(-0.00102816 -0.00223363 0)
(-0.000795372 -0.0051623 0)
(-0.000124068 -0.00484482 0)
(0.000351065 -0.00488449 0)
(0.000853421 -0.00482834 0)
(0.00198871 -0.00241761 0)
(0.000358054 0.00333752 0)
(-0.00807951 0.00520874 0)
(0.0129155 -0.0136543 0)
(0.0102516 -0.0230086 0)
(0.0246987 -0.0101719 0)
(-0.0916773 0.041602 0)
(0.490249 0.228655 0)
(-0.213535 0.03848 0)
(-0.086954 0.0233306 0)
(-0.108666 0.0217079 0)
(-0.119429 0.0199338 0)
(-0.128211 0.0161883 0)
(-0.135136 0.0106506 0)
(-0.139885 0.00346889 0)
(-0.141996 -0.00525365 0)
(-0.141079 -0.0154678 0)
(-0.137084 -0.0269832 0)
(-0.129979 -0.0393173 0)
(-0.120227 -0.0520764 0)
(-0.108887 -0.0643588 0)
(-0.0974351 -0.0729854 0)
(-0.0887848 -0.07244 0)
(-0.090412 -0.0610732 0)
(0.0681407 0.0182499 0)
(-0.0521813 0.0110857 0)
(-0.0491747 0.00545184 0)
(-0.0475369 -0.00452449 0)
(-0.0433005 -0.0108584 0)
(-0.0362701 -0.0120724 0)
(0.0211751 0.00886729 0)
(0.0111074 -0.00625263 0)
(0.00362607 -0.00973266 0)
(-0.00224182 -0.00959969 0)
(-0.00774876 -0.00885088 0)
(-0.0127262 -0.00668862 0)
(-0.0170514 -0.00250681 0)
(-0.0213901 0.00277801 0)
(-0.0286117 0.00613861 0)
(0.0391904 -0.0155667 0)
(0.00149574 0.00223717 0)
(-0.0515718 0.0148395 0)
(-0.169552 0.0225291 0)
(0.624255 0.294199 0)
(-0.257205 0.0710774 0)
(-0.0661298 0.0403471 0)
(-0.0961711 0.0337075 0)
(-0.108319 0.0298308 0)
(-0.11716 0.0244613 0)
(-0.12442 0.0171753 0)
(-0.129951 0.00788625 0)
(-0.133498 -0.00326802 0)
(-0.134541 -0.0159282 0)
(-0.133929 -0.0295601 0)
(-0.132382 -0.0432671 0)
(-0.131102 -0.0560549 0)
(-0.131549 -0.066224 0)
(-0.135616 -0.070241 0)
(-0.146462 -0.0616448 0)
(-0.163458 -0.0293296 0)
(-0.158735 0.0362354 0)
(-0.117052 0.0197152 0)
(-0.120941 0.0119483 0)
(-0.113192 0.00159308 0)
(-0.113688 -0.00803219 0)
(-0.117319 -0.0150818 0)
(-0.123083 -0.0181901 0)
(-0.121657 -0.0118841 0)
(-0.110182 -0.0123223 0)
(-0.0965051 -0.0153728 0)
(-0.0782874 -0.0198352 0)
(-0.0546066 -0.0257846 0)
(-0.0266406 -0.0328682 0)
(0.0156421 -0.0394901 0)
(0.0539861 -0.0376031 0)
(0.0898363 -0.0324854 0)
(0.106943 -0.0220693 0)
(0.10381 0.00871963 0)
(0.0839338 0.0304384 0)
(-0.00725836 0.0378359 0)
(0.726146 0.348197 0)
(-0.291786 0.106213 0)
(-0.0451504 0.056436 0)
(-0.0774451 0.0457349 0)
(-0.0909932 0.0391952 0)
(-0.0987771 0.0320696 0)
(-0.104815 0.0232826 0)
(-0.109316 0.0123768 0)
(-0.112252 -0.000513331 0)
(-0.11305 -0.0147099 0)
(-0.113132 -0.0290572 0)
(-0.113535 -0.0423763 0)
(-0.115432 -0.0537361 0)
(-0.119758 -0.0621577 0)
(-0.126984 -0.0663198 0)
(-0.136259 -0.064242 0)
(-0.143165 -0.0520095 0)
(-0.142895 -0.02566 0)
(-0.133368 -0.00323977 0)
(-0.120815 0.00437274 0)
(-0.110415 0.000512403 0)
(-0.105528 -0.00546122 0)
(-0.104274 -0.0109355 0)
(-0.104054 -0.0138532 0)
(-0.101103 -0.0132857 0)
(-0.0943044 -0.016031 0)
(-0.0845487 -0.0213172 0)
(-0.071159 -0.0290568 0)
(-0.0535741 -0.038977 0)
(-0.0322597 -0.0499712 0)
(-0.00697755 -0.0583215 0)
(0.0222453 -0.0583989 0)
(0.0496999 -0.0488759 0)
(0.0732204 -0.0282588 0)
(0.0955533 0.0110062 0)
(0.106409 0.0438629 0)
(0.0889389 0.0640495 0)
(0.108991 0.0623852 0)
(0.0966464 0.056636 0)
(-0.406384 -0.0341393 0)
(0.787018 0.396318 0)
(-0.317447 0.136578 0)
(-0.0293164 0.0615541 0)
(-0.0462186 0.0566574 0)
(-0.0624198 0.0491252 0)
(-0.0707131 0.0384747 0)
(-0.075214 0.0274268 0)
(-0.0776288 0.0149326 0)
(-0.0783848 0.000646072 0)
(-0.0772101 -0.0144899 0)
(-0.0764638 -0.0286537 0)
(-0.0770665 -0.0405739 0)
(-0.0798315 -0.0496196 0)
(-0.0850758 -0.0552461 0)
(-0.092491 -0.0565115 0)
(-0.100598 -0.0520705 0)
(-0.10601 -0.0412169 0)
(-0.105894 -0.0267221 0)
(-0.10035 -0.0140329 0)
(-0.0924032 -0.00765543 0)
(-0.085592 -0.00728077 0)
(-0.0816765 -0.00981142 0)
(-0.080169 -0.0131883 0)
(-0.0796263 -0.0160073 0)
(-0.0783215 -0.0184936 0)
(-0.0755404 -0.0231744 0)
(-0.07115 -0.0307278 0)
(-0.0646885 -0.0412607 0)
(-0.0559204 -0.0541176 0)
(-0.0452096 -0.0674594 0)
(-0.033026 -0.0780496 0)
(-0.0191431 -0.0818718 0)
(-0.00252546 -0.0754686 0)
(0.0171498 -0.0540425 0)
(0.0447657 -0.0138408 0)
(0.0796507 0.0302656 0)
(0.0957113 0.0512706 0)
(0.1182 0.0552404 0)
(0.144425 0.0791204 0)
(-0.0477251 0.0844407 0)
(0.806958 0.440989 0)
(-0.323645 0.131957 0)
(-0.00559728 0.021809 0)
(0.016925 0.0604704 0)
(-0.00359668 0.0669857 0)
(-0.0205803 0.0465582 0)
(-0.0269862 0.0293625 0)
(-0.0290639 0.014449 0)
(-0.0287372 -0.00151673 0)
(-0.0260162 -0.0169379 0)
(-0.0253268 -0.0296045 0)
(-0.0269121 -0.0390717 0)
(-0.0310932 -0.0454879 0)
(-0.0377127 -0.0490448 0)
(-0.0459786 -0.0493741 0)
(-0.0543577 -0.0455792 0)
(-0.0604391 -0.0374661 0)
(-0.0624779 -0.0273057 0)
(-0.0605941 -0.0183054 0)
(-0.0566551 -0.0128881 0)
(-0.05285 -0.0111571 0)
(-0.0504588 -0.0117297 0)
(-0.0496143 -0.013425 0)
(-0.0498346 -0.0155505 0)
(-0.0505605 -0.0185226 0)
(-0.0517185 -0.0236716 0)
(-0.053424 -0.0319334 0)
(-0.0555753 -0.0436034 0)
(-0.0581792 -0.0577451 0)
(-0.0613482 -0.0721614 0)
(-0.0648687 -0.083926 0)
(-0.0676866 -0.0898598 0)
(-0.0680521 -0.0872629 0)
(-0.0632537 -0.0738892 0)
(-0.0478213 -0.0496344 0)
(-0.00812052 -0.0194079 0)
(0.0376803 -0.0101991 0)
(0.0841208 -0.0192274 0)
(0.137517 0.0301707 0)
(-0.0556999 0.151323 0)
(0.90911 0.458239 0)
(-0.0987452 0.110389 0)
(0.0933487 -0.0546421 0)
(0.149511 0.0237148 0)
(0.11339 0.0577119 0)
(0.0789172 0.0452963 0)
(0.0634571 0.0265153 0)
(0.0550275 0.0102844 0)
(0.0491162 -0.00593372 0)
(0.0450603 -0.0195703 0)
(0.0412074 -0.0294512 0)
(0.0355943 -0.035816 0)
(0.0281541 -0.039418 0)
(0.0190353 -0.0408968 0)
(0.00879114 -0.0404441 0)
(-0.0015922 -0.0376419 0)
(-0.00980013 -0.0323019 0)
(-0.0147198 -0.0256159 0)
(-0.0164846 -0.0194437 0)
(-0.0161945 -0.0152034 0)
(-0.0152626 -0.0131671 0)
(-0.0146707 -0.0127598 0)
(-0.0148097 -0.0133107 0)
(-0.015757 -0.014391 0)
(-0.0176762 -0.0162135 0)
(-0.0212342 -0.0196148 0)
(-0.0274545 -0.0256071 0)
(-0.0374196 -0.0348691 0)
(-0.0519043 -0.0467398 0)
(-0.0708899 -0.0591987 0)
(-0.09368 -0.069868 0)
(-0.118515 -0.0761809 0)
(-0.142765 -0.07556 0)
(-0.16329 -0.0651991 0)
(-0.176436 -0.0424825 0)
(-0.179433 -0.00730711 0)
(-0.176108 0.0359705 0)
(-0.175713 0.0854416 0)
(-0.223157 0.148828 0)
(-0.588343 0.233382 0)
(1.05252 0.413145 0)
(0.498345 0.244067 0)
(0.435797 0.144825 0)
(0.445864 0.162956 0)
(0.331585 0.147035 0)
(0.24906 0.111142 0)
(0.206484 0.0757156 0)
(0.179465 0.0452757 0)
(0.159301 0.0202655 0)
(0.139751 3.30795e-05 0)
(0.121726 -0.0145474 0)
(0.106123 -0.0235454 0)
(0.0920483 -0.0282657 0)
(0.078878 -0.0299977 0)
(0.0663115 -0.0297101 0)
(0.0544785 -0.0280283 0)
(0.0441792 -0.0252022 0)
(0.0362365 -0.0216298 0)
(0.0308925 -0.0181503 0)
(0.0276457 -0.0155648 0)
(0.0256277 -0.014161 0)
(0.0240982 -0.0137412 0)
(0.0226067 -0.0139293 0)
(0.0208774 -0.0143772 0)
(0.0185646 -0.0149319 0)
(0.0149167 -0.0156669 0)
(0.00867169 -0.0169002 0)
(-0.00315015 -0.0196193 0)
(-0.0234885 -0.0244215 0)
(-0.0531607 -0.0304604 0)
(-0.0919794 -0.0361949 0)
(-0.138332 -0.0396636 0)
(-0.188972 -0.0393727 0)
(-0.240636 -0.0347942 0)
(-0.288918 -0.0263677 0)
(-0.32784 -0.0176763 0)
(-0.356285 -0.0191153 0)
(-0.374521 -0.043719 0)
(-0.417648 -0.0974809 0)
(-0.66375 -0.172714 0)
(-1.29257 0.0203328 0)
(0.283236 0.172325 0)
(0.174794 0.155081 0)
(0.165674 0.127318 0)
(0.174409 0.0923869 0)
(0.177271 0.0590353 0)
(0.174357 0.0324722 0)
(0.168407 0.0133057 0)
(0.15991 -0.000274193 0)
(0.149204 -0.00945579 0)
(0.137479 -0.0150003 0)
(0.125594 -0.0177811 0)
(0.114064 -0.0186501 0)
(0.103163 -0.0183601 0)
(0.0931806 -0.017445 0)
(0.0845051 -0.0162678 0)
(0.0774409 -0.0151431 0)
(0.0719618 -0.0143119 0)
(0.0677344 -0.0138501 0)
(0.0643388 -0.013678 0)
(0.0614232 -0.0136421 0)
(0.0587267 -0.0135711 0)
(0.0560317 -0.0133029 0)
(0.0530877 -0.0126422 0)
(0.0495774 -0.0112995 0)
(0.0447613 -0.00921446 0)
(0.0371945 -0.00676112 0)
(0.0260143 -0.00422506 0)
(0.0111372 -0.00196255 0)
(-0.00774726 -0.000498459 0)
(-0.0242918 0.000847212 0)
(-0.0372425 0.00473568 0)
(-0.045974 0.0154451 0)
(-0.0622116 0.034876 0)
(-0.076851 0.0569002 0)
(-0.0740159 0.0582183 0)
(0.108177 -0.0467122 0)
(-0.216668 -0.261272 0)
(-0.584783 0.158921 0)
(0.198836 0.0648427 0)
(0.0459877 0.0885491 0)
(0.0790377 0.0984281 0)
(0.117664 0.0770604 0)
(0.143692 0.0516855 0)
(0.158419 0.0328385 0)
(0.164728 0.0212105 0)
(0.16506 0.0151845 0)
(0.161338 0.0129404 0)
(0.155315 0.0126797 0)
(0.148216 0.0141256 0)
(0.140822 0.0169669 0)
(0.133644 0.0207852 0)
(0.126995 0.0250481 0)
(0.121043 0.02914 0)
(0.115845 0.0324783 0)
(0.111331 0.0347061 0)
(0.10733 0.0358189 0)
(0.103633 0.0361128 0)
(0.100074 0.0360184 0)
(0.0965694 0.0359528 0)
(0.09314 0.0362341 0)
(0.0899306 0.0371033 0)
(0.0872269 0.0389087 0)
(0.0853192 0.0421122 0)
(0.084106 0.0465546 0)
(0.0831428 0.0494718 0)
(0.081285 0.0510437 0)
(0.0781671 0.0514772 0)
(0.0751615 0.0499397 0)
(0.073618 0.0487659 0)
(0.0755767 0.0515005 0)
(0.0812533 0.0580805 0)
(0.0899886 0.0596004 0)
(0.110655 0.0316673 0)
(0.151439 -0.049417 0)
(-0.163995 -0.182678 0)
(-0.0221557 -0.245681 0)
(-0.272744 -0.0505536 0)
(-0.308745 0.1387 0)
(0.0108993 -0.0218047 0)
(-0.0706223 0.0204462 0)
(0.00345 0.0478765 0)
(0.068883 0.0265436 0)
(0.113748 0.00426448 0)
(0.143649 -0.0141282 0)
(0.160457 -0.0294027 0)
(0.168093 -0.0429133 0)
(0.170233 -0.0554822 0)
(0.169123 -0.0666271 0)
(0.166212 -0.0769159 0)
(0.162553 -0.0867376 0)
(0.15889 -0.0962416 0)
(0.155656 -0.105351 0)
(0.152972 -0.11383 0)
(0.150691 -0.121408 0)
(0.148491 -0.127934 0)
(0.146007 -0.133446 0)
(0.142965 -0.138145 0)
(0.139257 -0.142298 0)
(0.134951 -0.146143 0)
(0.130254 -0.149802 0)
(0.12547 -0.153191 0)
(0.121026 -0.155881 0)
(0.117618 -0.157071 0)
(0.116391 -0.155999 0)
(0.118 -0.149415 0)
(0.122806 -0.139136 0)
(0.130891 -0.132261 0)
(0.141009 -0.133822 0)
(0.149939 -0.136939 0)
(0.157924 -0.129232 0)
(0.169558 -0.110752 0)
(0.185187 -0.0996524 0)
(0.198572 -0.11286 0)
(0.205813 -0.139977 0)
(-0.119547 -0.198772 0)
)
;

boundaryField
{
    floor
    {
        type            noSlip;
    }
    ceiling
    {
        type            noSlip;
    }
    sWall
    {
        type            noSlip;
    }
    nWall
    {
        type            noSlip;
    }
    sideWalls
    {
        type            empty;
    }
    glass1
    {
        type            noSlip;
    }
    glass2
    {
        type            noSlip;
    }
    sun
    {
        type            noSlip;
    }
    heatsource1
    {
        type            noSlip;
    }
    heatsource2
    {
        type            noSlip;
    }
    Table_master
    {
        type            noSlip;
    }
    Table_slave
    {
        type            noSlip;
    }
    inlet
    {
        type            fixedValue;
        value           uniform (0.114805 -0.277164 0);
    }
    outlet
    {
        type            zeroGradient;
    }
}


// ************************************************************************* //
