/*--------------------------------*- C++ -*----------------------------------*=========                 |
  \      /  F ield         | OpenFOAM: The Open Source CFD Toolbox
   \    /   O peration     | Website:  https://openfoam.org
    \  /    A nd           | Version:  6
     \/     M anipulation  |
\*---------------------------------------------------------------------------*/
FoamFile
{
    version     2.0;
    format      ascii;
    class       volScalarField;
    location    "620";
    object      PMV;
}
// * * * * * * * * * * * * * * * * * * * * * * * * * * * * * * * * * * * * * //

dimensions      [0 0 0 0 0 0 0];

internalField   nonuniform List<scalar> 
458
(
1.3232296232418224
1.0772346372934423
1.044564698997384
1.0156259030177592
0.9971071805472191
0.9889454259489864
0.991441192280179
1.0056432101226862
1.034831008264648
1.0828421979227225
1.153439259340688
1.2239237889240653
1.2396786899434926
1.2482719346869744
1.2602065848269273
1.3747510232766729
1.361390447730483
1.3580501709755992
1.364253500193619
1.3695023282094663
1.372842422390179
1.368474130503837
1.3646719625873422
1.3656542551873962
1.3675673908827444
1.3705667694831998
1.3738513925086835
1.3782271344168164
1.3846893981507422
1.3959807818929417
1.4043320001033515
1.4086256363361682
1.4229370386303564
1.2561725085958548
1.0891732429464815
1.0772184639799822
1.0486636351131826
1.031810210803016
1.0233462801797273
1.0244150365402906
1.0327605575212835
1.0470476422602701
1.071707257361527
1.1120778434712382
1.1729838329225808
1.2363368072602108
1.247317141802736
1.2544780135411338
1.211728088069839
1.2118106011291865
1.2339132395923307
1.3283397381641153
1.3485062371895187
1.3480290295175132
1.3556642270304655
1.3585322626401506
1.3581578152002118
1.3582298898596463
1.359850997874389
1.3605781308750378
1.3608615094523688
1.3613081999022103
1.3625974460854589
1.3641900657194352
1.3668495295232077
1.3754629245507437
1.3838166324348549
1.3904962918108683
1.373892127974856
1.2874085754968927
1.0801429024809825
1.1099020973970732
1.0942518515811477
1.08747535459943
1.0838487938586623
1.083712026105913
1.080581693128169
1.0668981785607967
1.0557026528151014
1.066503595551017
1.115293499175335
1.2074046011652608
1.254000627503358
1.2602065848269273
1.263070827698365
1.2642930626754785
1.2442826212262301
1.2387346690459313
1.3030155087207551
1.3122584873520406
1.3211081407619352
1.3318730834164105
1.3359580864812455
1.3585223276201486
1.372842422390179
1.372842422390179
1.3733195742783466
1.3733195742783466
1.3733195742783466
1.373796725056474
1.3742738747230172
1.3771367493006155
1.3804767185905735
1.373420146796986
1.3003933586852536
1.3622109565849538
1.0738142481226884
1.1335179795898904
1.1438503995484561
1.1614164923482422
1.1724576030285268
1.1749416089545246
1.1508673682644477
1.094071833616039
1.0404793475003136
1.0280017049403076
1.0735236819145686
1.1663563504201544
1.2600152609669266
1.2735728024747772
1.2750048591304184
1.2493762186685506
1.2251682476647334
1.1741735478579125
1.240914194218312
1.2768206816911503
1.3027470217097383
1.3328289965575795
1.3674007621869944
1.393562791998926
1.3873049489112055
1.3815362870367245
1.380322332533494
1.3814844828807151
1.3839675753468283
1.3909813460717213
1.4041422647721495
1.4269096537107344
1.4263465084327567
1.4119650630468554
1.353237294805906
1.2563355031498855
1.4563131314025797
1.082072176141387
1.1505362435561188
1.188310491745966
1.2432678504963675
1.290016993805551
1.2993348911742402
1.2271696199102184
1.116030050862304
1.0269060473150813
0.9994070244289615
1.0474509680784807
1.1424008191987416
1.2456872119304288
1.293143582574784
1.2950528490105526
1.284028896816267
1.2556121760741235
1.2541221091563943
1.2698647210214151
1.3012701531087618
1.3416154223251493
1.3829838670990777
1.4233230926221558
1.4506024907961803
1.4628652697204163
1.4637147568856959
1.4628052179528397
1.4610640776361203
1.4581270541048739
1.4560353214289299
1.4553468488242818
1.454981366765579
1.4397007865217588
1.4128249808305888
1.3376765967747934
1.3381549358690148
1.3350357883933335
1.41966436729457
1.298036208370013
1.5539238134687303
1.1116401264691524
1.1817577272330915
1.2203496540033485
1.3048792735246206
1.380953852545862
1.4176896542580841
1.2570082818323396
1.1148962648231295
1.0097767719789643
0.979105085848299
1.031837705875831
1.13814698570033
1.2569623129855787
1.3213037867950355
1.327030885958711
1.3251218684028163
1.3260763791270311
1.3383261881162454
1.3588309586706118
1.3925232685455617
1.4243681170269633
1.4515563925252621
1.473971495450567
1.4906615505223433
1.5021051111428485
1.509733664372879
1.5145013085862176
1.5159315712978219
1.5149780643964519
1.5106872057000702
1.5035354948547779
1.4862321957629558
1.456308125772893
1.419267250047433
1.3489214298630439
1.3426129946346528
1.335463593488547
1.3604659624929814
1.3682617380719875
1.6462839971180814
1.1989876400784043
1.3010876215152003
1.278842829736179
1.3337468276822557
1.4129191739332663
1.3491544867470342
1.2272502104929304
1.0851681032808282
0.9807597148243307
0.9600444942208589
1.031362040739645
1.1607592695232125
1.3036812824537058
1.359481724574108
1.3704566463474868
1.3709338037648695
1.3766596063331207
1.3947902385483433
1.420551882735418
1.448694671126697
1.4754021412212934
1.4978138777363648
1.5149780643964519
1.526896444161076
1.534523679062743
1.5383371392154028
1.539290487716901
1.5383371392154028
1.535000367351282
1.5288032919323824
1.5197455357324683
1.5087801168305401
1.4919184258195446
1.4475061071178643
1.384805655477595
1.3559835984601998
1.3349509415703928
1.3067708431738658
1.4134358229386914
1.7868823137912166
1.5722656830062065
1.5142775179285084
1.3970928305487678
1.3755129588222934
1.3646808786092115
1.293707793267299
1.1525095305243847
1.00322356028415
0.921463804548195
0.9416141066237295
1.0591472510448554
1.2286932189543418
1.3685480056764479
1.4095797643644197
1.4219829800498893
1.4262762038072836
1.4362933228919392
1.455848883046014
1.479217133362403
1.5025819072425959
1.5221292118998777
1.537383784085233
1.5478703236127087
1.5535899101916466
1.5564496111207904
1.5569262219162683
1.5554963843574392
1.5526366628178347
1.5483469651789545
1.542627155067796
1.533570297557955
1.52308267119209
1.5111639740287313
1.4978138777363648
1.483032032849621
1.4736984561574729
1.446244854995372
1.3666660972888336
1.2804346688986779
1.9965701592737368
1.8485026998268086
1.686748207593832
1.5438694531907269
1.45182162129937
1.3799322147573785
1.1867275457489537
0.9671069494704657
0.8356816755605632
0.8360343245095087
0.953538654137431
1.1583284112419343
1.3537554528219216
1.4334313469905569
1.4625258696443002
1.4754021412212934
1.4839857431466377
1.4963834393275217
1.5130710317378138
1.5302334107330091
1.5454870904290703
1.5574028309852013
1.563528675719851
1.559207241945162
1.5534832115033348
1.5470836339677612
1.539304938397622
1.5302083717225379
1.519958592362595
1.5085001958442739
1.4953388721203742
1.480413957157061
1.4663932349901974
1.4500554399008396
1.4305384834031778
1.4122041408233847
1.400722010017987
1.3965262470250372
1.3865945599429883
1.3550409519354965
-1.6611799912708167
-0.7562679493684165
-0.1982347285691669
0.002715250751557892
0.1455680052081195
0.32995570608123753
0.5704593352389841
0.8462542905550386
1.1395726297927744
1.3518466617744236
1.4520333413578672
1.4717699614535902
1.4804133366699013
1.488893613288356
1.4995033212763964
1.5122351262772435
1.5240365244216905
1.5324320491347971
1.5366421873131209
1.536877729133109
1.5341125133579387
1.5294317087254872
1.5227333490828168
1.5152927227624426
1.506628363548492
1.4979748297363589
1.4893482666456714
1.4818993954794115
1.476163359472833
1.4718109335389753
1.4690269604301962
1.4671707300140509
1.4652179237487524
1.4659081869404684
1.4763822005265448
1.5127030754285322
1.5799020783844486
1.4275555194910334
-1.672506623181302
-0.5877145562781888
-0.01093217847001097
0.31138052174362113
0.5199596632091921
0.7787949639487172
1.0477127552728602
1.2783462954289542
1.3735717346085763
1.4171356211160315
1.445563611241457
1.4618619920468947
1.4736131743276213
1.482654376995819
1.4907359231272714
1.4981418503066362
1.5047100038658707
1.50938687589506
1.511690901684342
1.5122107604579786
1.5110637735242558
1.5083907415943936
1.505319072761387
1.5020160000097327
1.4986551663022858
1.4954183295585066
1.493021889012018
1.4919277406130493
1.4920986702491643
1.4947778420730766
1.5015810002669783
1.5131920506910455
1.5259606915951753
1.5358111789905025
1.5464913633424773
1.5816736543946062
1.5297461245743362
1.4707026535236352
-1.1329348086377216
-1.1322412600586407
-1.0087679124436508
-0.2089873892131599
0.37365960409914617
0.7871265667686229
1.084975711321097
1.2329734479375574
1.3217174922317934
1.375661517353337
1.4100555023629855
1.4349294322041497
1.4497857084863257
1.4585700197921274
1.4635673285001216
1.467001393891198
1.4682376520566525
1.4686580897626151
1.4670892818551367
1.4649055237320094
1.461891662503232
1.4587163752767422
1.4560338227434275
1.453940894420227
1.4520455054919656
1.4510440867142178
1.4511958924472776
1.4528746747623558
1.4566086243563279
1.4631404897855822
1.4730823602185907
1.4874538229274323
1.5107848025613158
1.5513530464279677
1.611246698077499
1.6174397522533912
1.5894144189063866
1.5292243253021254
1.4779138189624048
1.4910269591192793
)
;

boundaryField
{
    ".*"
    {
        type            zeroGradient;
    }
}


// ************************************************************************* //
