/*--------------------------------*- C++ -*----------------------------------*=========                 |
  \      /  F ield         | OpenFOAM: The Open Source CFD Toolbox
   \    /   O peration     | Website:  https://openfoam.org
    \  /    A nd           | Version:  6
     \/     M anipulation  |
\*---------------------------------------------------------------------------*/
FoamFile
{
    version     2.0;
    format      ascii;
    class       volScalarField;
    location    "620";
    object      PPD;
}
// * * * * * * * * * * * * * * * * * * * * * * * * * * * * * * * * * * * * * //

dimensions      [0 0 0 0 0 0 0];

internalField   nonuniform List<scalar> 
458
(
41.46386834459903
29.479260131067207
28.03067449558216
26.779864631879036
25.99580965818545
25.654378757502315
25.75851445512751
26.35560578644231
27.606518396708907
29.731697592877595
33.00070217993532
36.420447432830265
37.20418944336597
37.63444777835228
38.2351677406086
44.164990461129754
43.45985288191953
43.28404825526355
43.61069779942017
43.88761247373042
44.064072870768925
43.833329999157236
43.632757274423966
43.68455136846119
43.78547480561228
43.94382739775516
44.11741474269587
44.34894586297579
44.6914512247182
45.291478932866106
45.736495353253666
45.9656820426722
46.731406846608365
38.03171079320952
30.01801836301732
29.478533640457
28.21032208177742
27.475589233366748
27.110532843282044
27.156482977989924
27.516743548768787
28.13942385661862
29.231509783350248
31.065346247894738
33.93413672657755
37.0373881200977
37.586546828589675
37.94637243212727
35.818419286625186
35.82247851524481
36.916608006564715
41.72949927474974
42.78284970685248
42.75783341392659
43.15859449487337
43.309409266968046
43.289710647080696
43.293502095189474
43.378804198532954
43.417080917286924
43.43200068370233
43.45552164855284
43.52342809776468
43.60735408344907
43.747598123480124
44.202647921703566
44.64515477895051
44.99978651317806
44.11956868888802
39.617524518374466
29.610045514908734
30.965095466662987
30.24869804291268
29.94109538668333
29.77712785880675
29.770953110894666
29.629803685651126
29.016831271858578
28.520243697130866
28.999253315859278
31.213802395703354
35.60599431928148
37.922343445694594
38.2351677406086
38.37987269246469
38.441683711729276
37.434465349980755
37.157041108219495
40.41848943959485
40.89540724203405
41.35374850631003
41.913477525239664
42.126491068261
43.30888658118138
44.064072870768925
44.064072870768925
44.08929663925801
44.08929663925801
44.08929663925801
44.114524166374395
44.139755443276535
44.29122135475533
44.4680992431305
44.094613710296635
40.28353381433772
43.50306805849744
29.325823497117028
32.06162816271237
32.547109094206604
33.38026183090048
33.90885057430552
34.028284651338396
32.87875559520579
30.240506149213346
27.85222968496187
27.31099756663606
29.312807802711845
33.6162927414165
38.225509146603834
38.91218006286786
38.98497428057939
37.68987794253977
36.48210991075872
33.99133534097939
37.26593123437031
39.077347064968976
40.40466406022046
41.963294146727584
43.77668214561373
45.16282211278492
44.830266947842404
44.524249679713655
44.45991927174844
44.52150396547181
44.653160781891216
45.02556567100579
45.726373617209816
46.94442958588684
46.91422022525817
46.14411170167474
43.031091665319664
38.039923386911425
48.52680116798981
29.696968314801993
32.863070416088775
34.67426277745797
37.38366153217885
39.7510048442541
40.22910047762867
36.58136589348311
31.247855089133523
27.263745860129845
26.09247705077854
28.157110057580837
32.478792106801535
37.5048296175013
39.911207972784446
40.00914665662145
39.44481180435292
38.00348318935862
37.928457612859326
38.72392206094749
40.32864326309673
42.422035757284405
44.600991482889164
46.75209947562207
48.2187506152433
48.880634562839866
48.92653846543372
48.877389782827294
48.78332508593626
48.62471722872896
48.51180771966621
48.47465399146835
48.454932478689386
47.63161756910597
46.19008280335452
42.216201707421234
42.24118252551432
42.07836869688404
46.55606670478015
40.162347970329606
53.827210479510995
31.04516503137951
34.356968761715834
36.24358675540486
40.51450539743228
44.4933820861008
46.450334129642464
38.07382892859958
31.195444723164968
26.53082571779376
25.246118371039103
27.476779427657007
32.27870262610999
38.07151190515454
41.36390000114542
41.66141249885081
41.56216757536957
41.61178083046902
42.25012710240904
43.325124623623395
45.10753806860145
46.80812256441973
48.270184412422445
49.48128407621485
50.38576831508056
51.00702001223202
51.421574286717934
51.68080563979816
51.75859335557429
51.70673397705423
51.47341274479726
51.084727171982514
50.14553109238316
48.52653100671556
46.53479968317302
42.804618504207724
42.474214210531166
42.10068802272633
43.41117569211883
43.82211925060981
58.849327367726914
35.193972920597105
40.31925093943617
39.18030880958289
42.011143289415635
46.19511896315723
42.81683922683533
36.58536498559327
29.836724977462836
25.314505944650108
24.465972424312497
27.456192974127006
33.34891599930481
40.45277944456303
43.35936903904966
43.93801071649787
43.963215559546995
44.26596776498541
45.22812132706443
46.60360362901018
48.11591015709247
49.55873221144463
50.773963391426875
51.70673397705423
52.35520969158424
52.77045647070405
52.97812866909258
53.030050900570814
52.97812866909258
52.79641392237821
52.459007521047575
51.96606541515378
51.369739898762894
50.453962106914915
48.05186006457134
44.69761908514882
43.17538118346702
42.073942522062104
40.612031880266116
46.22274441884982
66.330121283306
54.82655583646824
51.66863514218633
45.35067835682865
44.20529490253914
43.633227320696854
39.940141366581095
32.95659492362677
26.25333679446132
22.9305699777657
23.725134958759483
28.67255530324462
36.65700029062515
43.83722954732773
46.016646637627474
46.68027706572162
46.91044907920079
47.448369308756064
48.50174603244457
49.76533658016521
51.03292123162137
52.095761847538014
52.92620802693329
53.497408708056284
53.80901818975729
53.96482740728571
53.99079566695712
53.91289089442243
53.757082166501284
53.523375381121724
53.21179002050116
52.718543019911145
52.14764574472743
51.49933347454589
50.773963391426875
49.97204746743438
49.466504955137054
47.9839091433198
43.73792107438283
39.26142906596632
76.59543428375255
69.4859514245835
61.031534987710586
53.27945971958508
48.28448702953423
44.43925104208433
34.59749761490011
24.75339010016097
19.732480393612477
19.745005505308427
24.202933717387026
33.23309432824193
43.058304898842096
47.29455948590591
48.86229617628365
49.55873221144463
50.023741233590385
50.69630038448864
51.60302615927934
52.536862286213555
53.367578372779555
54.01676391472643
54.35053587512345
54.11507857488425
53.80320486511904
53.454551727533975
53.030837942755404
52.53549912615945
51.97765699617762
51.35452437663858
50.639595396086484
49.83017488424387
49.07131847636139
48.18925816202408
47.13918739187277
46.15689176559651
45.54400307813377
45.32051423276317
44.792553672440995
43.12583946815888
59.654613343282136
17.045481263679378
5.814867399491291
5.000152616280218
5.439055792639692
7.263987547182708
11.816544938860545
20.110245832367625
32.34569656174055
42.958081154442816
48.29590466907157
49.36213647796735
49.83014126634035
50.28986376903469
50.86570428002419
51.557573299359184
52.1995543477674
52.65656631297402
52.885821351263296
52.89864860568677
52.74806742524065
52.49321738218148
52.12863648208601
51.723847197257285
51.25278823919675
50.782702750362596
50.314525154558666
49.91066400392238
49.59994752841755
49.36435353186706
49.21374120594818
49.11335641463359
49.00778137839163
49.04509538723159
49.61179728766583
51.58301792092622
55.24254284758483
46.979081206466816
60.26548321392728
12.239139763336041
5.002473982288777
7.015310264661579
10.653931388664645
17.78052115469812
28.168592815780443
39.155017718902855
44.10262817969381
46.42067853110683
47.9472136296176
48.82642875271965
49.461888929232146
49.951579298472055
50.389803231286855
50.79177178278051
51.14854197091202
51.40272251675699
51.52798249061008
51.556248441438875
51.49388572853142
51.34857493351406
51.18163751262211
51.00217932597964
50.81964530710578
50.643908557294324
50.513840750233264
50.454467534588716
50.463742404751535
50.60914230599437
50.97854994835454
51.609606901241555
52.30427696138969
52.840566914718636
53.422286764703586
55.339034156908255
52.51033405117966
49.304387980401614
32.03432990074333
32.001879229310106
26.488001257473755
5.9058340077084495
7.9068732512414215
18.057850595701495
29.82803030043908
36.869815142385654
41.385368573948604
44.21315439194845
46.04206279738232
47.3750585115726
48.174717609883366
48.6486334431134
48.91857137853104
49.10420022344089
49.17105182353161
49.193790336011844
49.10895239136256
48.99089516313638
48.82803167666458
48.65653575105649
48.511726837411125
48.3987955188432
48.29656067027726
48.24256004393346
48.25074537932512
48.341280566382096
48.54274979333484
48.895505963140515
49.433159040034404
50.2117756993494
51.47871876008834
53.68714769082005
56.948402716276014
57.28496633943945
55.76056311912843
52.48192767599742
49.69474160571922
50.4055930769556
)
;

boundaryField
{
    ".*"
    {
        type            zeroGradient;
    }
}


// ************************************************************************* //
