/*--------------------------------*- C++ -*----------------------------------*\
  =========                 |
  \\      /  F ield         | OpenFOAM: The Open Source CFD Toolbox
   \\    /   O peration     | Website:  https://openfoam.org
    \\  /    A nd           | Version:  6
     \\/     M anipulation  |
\*---------------------------------------------------------------------------*/
FoamFile
{
    version     2.0;
    format      ascii;
    class       surfaceScalarField;
    location    "43699.9999999157371";
    object      phi;
}
// * * * * * * * * * * * * * * * * * * * * * * * * * * * * * * * * * * * * * //

dimensions      [1 0 -1 0 0 0 0];

internalField   nonuniform List<scalar> 
1482
(
-0.00279981
0.00286385
-0.00348409
0.000684278
-0.00414485
0.000660756
-0.00475903
0.000614181
-0.00528053
0.000521509
-0.00569262
0.000412086
-0.00598404
0.000291423
-0.00614172
0.00015768
-0.00614829
6.57234e-06
-0.00597775
-0.000170542
-0.0056001
-0.000377656
-0.00498423
-0.000615865
-0.00405992
-0.000924316
-0.0025808
-0.00147912
-0.00257788
-6.51e-05
6.99536e-05
0.000778801
-0.000843901
0.00143173
-0.000652925
0.00183166
-0.000399933
0.00205379
-0.000222129
0.00215842
-0.000104636
0.0022057
-4.72728e-05
0.00222834
-2.264e-05
0.00223795
-9.60786e-06
0.00223876
-8.18162e-07
0.00223168
7.08232e-06
0.00221268
1.90024e-05
0.00216842
4.42587e-05
0.00206569
0.000102726
0.00184911
0.000216582
0.00149174
0.000357376
0.00102032
0.000471415
0.00102676
-0.00204041
0.00507458
-0.00290858
0.00155245
-0.00369446
0.00144664
-0.00434556
0.00126528
-0.00488293
0.00105888
-0.00531186
0.000841013
-0.00563056
0.000610125
-0.00583222
0.00035934
-0.00590614
8.04887e-05
-0.00584443
-0.000232253
-0.00564124
-0.000580843
-0.00528523
-0.000971872
-0.00477521
-0.00143434
-0.00428925
-0.00196508
-0.00470537
-0.00216175
-0.00311855
-0.00158139
-0.00163467
-0.00147819
-0.00161983
0.00131738
-0.00123722
0.00166116
-0.00118768
0.00191269
-0.000904448
0.00210395
-0.000591191
0.00221144
-0.000329627
0.00222048
-0.000113675
0.00222257
-4.93601e-05
0.00222423
-2.4296e-05
0.00222516
-1.05405e-05
0.0022251
-7.63776e-07
0.00222369
8.49934e-06
0.00221946
2.32324e-05
0.00220681
5.69079e-05
0.00214487
0.000164669
0.00189527
0.000466177
0.00146592
0.000786722
0.00090243
0.00103491
0.00194607
-0.0014883
0.0068208
-0.00235926
0.00242341
-0.00312928
0.00221666
-0.00371356
0.00184956
-0.0041843
0.00152962
-0.00455586
0.00121257
-0.00483004
0.000884308
-0.00500361
0.000532908
-0.00507014
0.000147018
-0.00502053
-0.000281866
-0.00484399
-0.000757378
-0.00453308
-0.00128279
-0.0041186
-0.00184882
-0.00372129
-0.0023624
-0.00330104
-0.00258201
-0.00236959
-0.00251284
-0.00127531
-0.00257247
-0.00288231
0.00114991
-0.00237267
0.00165306
-0.00169083
0.00195116
-0.00120255
0.00214373
-0.000783757
0.0021735
-0.000359403
0.00205998
0.00201077
0.00198663
0.00197625
0.00197564
0.00198429
0.00200768
0.00206474
0.00222956
0.00187132
0.000824417
0.00142375
0.00123429
0.000804254
0.00165441
0.00277636
-0.00110612
0.00825813
-0.00192812
0.00324541
-0.00257022
0.00285875
-0.00303061
0.00230995
-0.00339819
0.0018972
-0.00368702
0.0015014
-0.00390013
0.00109741
-0.00403567
0.000668451
-0.00408614
0.000197482
-0.00403831
-0.00032969
-0.0038799
-0.000915796
-0.00360677
-0.00155591
-0.00324155
-0.00221404
-0.00282008
-0.00278386
-0.00228114
-0.00312095
-0.00156186
-0.00323212
-0.000873987
-0.00326034
-0.000695219
-0.00306108
0.00144156
-0.00212134
0.00137492
-0.00230602
0.001691
-0.00200691
0.00200372
-0.00151528
0.00227003
-0.00105006
0.00254619
-0.000635563
0.0028606
-0.000314562
0.00302819
-0.000167742
0.00309331
-6.52765e-05
0.0030765
1.66502e-05
0.0029866
8.97495e-05
0.00282468
0.000161771
0.00258301
0.000241512
0.00223874
0.000344113
0.00173464
0.000503951
0.00159879
0.000960269
0.00127212
0.00156095
0.000746372
0.00218016
0.00355703
-0.000803839
0.00945516
-0.00158009
0.00402166
-0.00204884
0.0033275
-0.00236461
0.00262572
-0.002609
0.00214159
-0.00279453
0.00168693
-0.00292622
0.00122911
-0.00300483
0.000747053
-0.0030238
0.000216455
-0.00296655
-0.000386947
-0.00281982
-0.00106252
-0.0025767
-0.00179903
-0.0022438
-0.00254694
-0.00182822
-0.00319944
-0.00132369
-0.00362548
-0.000747755
-0.00380805
-0.000216867
-0.00379122
0.000260461
-0.00353841
0.00112206
-0.00298294
0.00148865
-0.00267261
0.00174808
-0.00226635
0.00200085
-0.00176804
0.00223092
-0.00128014
0.0024454
-0.000850041
0.00264688
-0.00051604
0.00275741
-0.000278275
0.00279407
-0.000101939
0.00276858
4.21415e-05
0.00268738
0.000170949
0.00255305
0.000296108
0.0023645
0.00043006
0.00211952
0.000589091
0.00182632
0.000797148
0.00162204
0.00116455
0.00148266
0.00170034
0.00130657
0.00235625
0.0022957
0.0025679
0.00132783
0.00100279
0.00187321
-0.000516521
0.00199233
-0.000575918
0.0104775
-0.00132493
0.00477067
-0.00158469
0.00358725
-0.0017507
0.00279173
-0.00186472
0.00225561
-0.0019362
0.00175841
-0.00197162
0.00126452
-0.00197528
0.000750714
-0.00194399
0.000185169
-0.00185612
-0.000474819
-0.00170194
-0.00121671
-0.00147159
-0.00202938
-0.00116801
-0.00285052
-0.000796958
-0.00357049
-0.000378256
-0.00404418
6.14025e-05
-0.00424771
0.000466466
-0.00419628
0.000841065
-0.00391301
0.00129261
-0.00343449
0.0015921
-0.0029721
0.00179602
-0.00247026
0.00196798
-0.00194001
0.00212009
-0.00143225
0.00225504
-0.00098499
0.00236038
-0.000621378
0.00241905
-0.000336952
0.00243061
-0.000113496
0.00240021
7.2546e-05
0.00233266
0.000238497
0.00223186
0.000396911
0.002102
0.000559912
0.00195039
0.000740708
0.00179178
0.000955755
0.00170263
0.0012537
0.00176216
0.0016408
0.00197625
0.00214216
0.00222054
0.00232361
0.00172993
0.00149341
0.000810486
0.00040292
0.00290046
-0.000543488
0.0115132
-0.0012438
0.00547099
-0.0011923
0.00353575
-0.00120079
0.00280022
-0.00119321
0.00224803
-0.00115975
0.00172495
-0.00110258
0.00120735
-0.00102745
0.000675585
-0.000928785
8.65023e-05
-0.000779748
-0.000623856
-0.000590708
-0.00140575
-0.000351322
-0.00226876
-6.87294e-05
-0.00313311
0.000234721
-0.00387393
0.000543553
-0.004353
0.000837991
-0.00454214
0.00110072
-0.00445901
0.00133433
-0.00414661
0.00156672
-0.00366687
0.00172714
-0.00313253
0.00182781
-0.00257093
0.00189858
-0.00201077
0.00195511
-0.00148879
0.00200256
-0.00103244
0.00203559
-0.000654406
0.00204837
-0.000349727
0.00203734
-0.000102469
0.00200317
0.000106713
0.00194893
0.000292736
0.00187846
0.000467382
0.00179712
0.000641257
0.00171373
0.000824094
0.00164384
0.00102565
0.00163131
0.00126623
0.00172143
0.00155068
0.00193576
0.00192784
0.00219111
0.00206826
0.00220136
0.00148316
0.00164927
0.000955011
0.00465292
-0.000483649
0.0125323
-0.00105172
0.00603906
-0.000697826
0.00318186
-0.000637164
0.00273956
-0.000568885
0.00217975
-0.000464194
0.00162026
-0.000335062
0.00107822
-0.000183645
0.000524168
5.91255e-06
-0.000103055
0.000224263
-0.000842207
0.000463835
-0.00164532
0.000720814
-0.00252574
0.000976517
-0.00338881
0.00120376
-0.00410117
0.00140189
-0.00455113
0.00156234
-0.00470258
0.00167994
-0.00457661
0.00175946
-0.00422612
0.00181323
-0.00372064
0.00182425
-0.00314354
0.00180059
-0.00254728
0.00176116
-0.00197134
0.00172079
-0.00144842
0.00168685
-0.0009985
0.00165918
-0.000626742
0.00163369
-0.000324231
0.00160538
-7.41609e-05
0.00157194
0.000140149
0.00153359
0.000331089
0.00149171
0.00050926
0.00144963
0.000683338
0.00141393
0.000859793
0.00139631
0.00104327
0.00142159
0.00124095
0.00151977
0.0014525
0.0017415
0.00170611
0.00203912
0.00177064
0.00215611
0.00136618
0.00167296
0.00143816
0.00669408
0.00297693
0.0101425
0.00202151
0.00699448
0.000868548
0.00433481
0.00037012
0.00323799
0.000213134
0.00233674
0.00026955
0.00156385
0.000423638
0.000924135
0.000637829
0.000309977
0.000897401
-0.000362626
0.00116248
-0.00110728
0.00144082
-0.00192365
0.00170711
-0.00279204
0.00193201
-0.00361371
0.00209151
-0.00426067
0.00218008
-0.0046397
0.00220067
-0.00472317
0.00216227
-0.0045382
0.00207859
-0.00414244
0.0019648
-0.00360684
0.00182641
-0.00300515
0.00167548
-0.00239635
0.00152884
-0.0018247
0.00140102
-0.0013206
0.00130008
-0.00089756
0.00122696
-0.000553622
0.00117654
-0.000273813
0.00114138
-3.8998e-05
0.0011161
0.000165434
0.00109716
0.00035002
0.00108239
0.000524036
0.00107182
0.000693903
0.00106837
0.000863243
0.0010787
0.00103293
0.00111737
0.00120228
0.00120649
0.00136339
0.00139693
0.00151567
0.00168446
0.0014831
0.00181196
0.00123866
0.000481062
0.00276906
0.00756101
0.00403152
0.00625126
0.00366767
0.00735833
0.00254223
0.00546025
0.00188902
0.0038912
0.00153246
0.00269329
0.00138765
0.00170865
0.00142159
0.000890198
0.00159626
0.000135305
0.00184857
-0.000614938
0.00212582
-0.00138453
0.00240523
-0.00220307
0.00264934
-0.00303615
0.00281655
-0.00378093
0.00288015
-0.00432427
0.00283721
-0.00459676
0.00270184
-0.00458779
0.00249653
-0.00433288
0.00224563
-0.00389154
0.00197193
-0.00333312
0.00169255
-0.00272576
0.00142469
-0.00212849
0.00118633
-0.00158633
0.000992067
-0.00112634
0.000847921
-0.000753415
0.000752218
-0.000457919
0.000695576
-0.000217171
0.000666814
-1.02362e-05
0.000657045
0.000175203
0.000659311
0.000347753
0.00066871
0.000514636
0.00068245
0.000680163
0.000699082
0.000846611
0.000718016
0.001014
0.000740519
0.00117977
0.000765923
0.00133798
0.000772196
0.0015094
0.000416395
0.00183888
-0.000854091
0.00250886
-0.00208065
0.00399547
0.00558519
0.00240987
0.00400591
0.00330511
0.00646309
0.00324913
0.00551622
0.00303834
0.00410199
0.00284736
0.00288428
0.00272421
0.0018318
0.00271053
0.000903881
0.0027998
4.60376e-05
0.00296206
-0.000777204
0.00317279
-0.00159526
0.00338986
-0.00242014
0.0035531
-0.00319939
0.0036079
-0.00383574
0.00352792
-0.00424429
0.00331887
-0.00438772
0.00300713
-0.00427606
0.00262728
-0.00395302
0.00221281
-0.00347707
0.00179342
-0.00291373
0.00139301
-0.00232534
0.0010333
-0.00176879
0.000734309
-0.00128734
0.00050968
-0.000901709
0.000357414
-0.000601149
0.000267769
-0.000368273
0.0002236
-0.000173002
0.000210518
2.84616e-06
0.000218085
0.000167636
0.000238804
0.000327034
0.000267613
0.000485827
0.000300273
0.000647502
0.000331486
0.000815398
0.000353
0.000992487
0.000353151
0.00117962
0.000309977
0.00138116
0.000136846
0.00168254
-0.000447796
0.00242343
-0.00129933
0.00336014
-0.00152346
0.00421939
0.00417904
0.00145724
0.00274292
0.0027489
0.00517143
0.00343306
0.00483206
0.00371906
0.00381599
0.00381754
0.00278579
0.00384582
0.00180352
0.00388241
0.000867285
0.00395225
-2.37979e-05
0.00406287
-0.000887825
0.00420319
-0.00173559
0.00432148
-0.00253843
0.00434702
-0.00322494
0.0042285
-0.00371724
0.00395401
-0.00396981
0.00354621
-0.00397993
0.00304507
-0.00377491
0.00249463
-0.00340259
0.0019338
-0.00291625
0.00139695
-0.00237687
0.000911754
-0.00184015
0.000505579
-0.00136261
0.000197834
-0.000979594
-6.86665e-06
-0.000697008
-0.000126367
-0.000481648
-0.000186853
-0.000307787
-0.000210285
-0.000149569
-0.000208949
1.51019e-06
-0.000189872
0.00014856
-0.000157374
0.000294536
-0.00011463
0.000443083
-6.56921e-05
0.000598564
-1.77048e-05
0.000767411
1.59662e-05
0.000958815
1.04544e-05
0.00118513
-8.30516e-05
0.00147467
-0.000355998
0.00195558
-0.000951303
0.00301893
-0.00186036
0.0042692
-0.00197863
0.00433757
0.00233193
0.00217435
0.000794549
0.00294488
0.0044009
0.00359447
0.00418247
0.00416431
0.00324615
0.00449192
0.00245818
0.00466639
0.00162905
0.00478374
0.000749933
0.00488953
-0.000129595
0.00499708
-0.000995365
0.00507569
-0.0018142
0.00505949
-0.00252223
0.0048885
-0.00305396
0.00454054
-0.00336929
0.00403468
-0.00346396
0.0034159
-0.00336116
0.00273508
-0.0030941
0.002041
-0.00270851
0.00137204
-0.00224729
0.000767759
-0.00177259
0.000256835
-0.00132922
-0.000122162
-0.000983615
-0.000365267
-0.00073649
-0.000502248
-0.000560026
-0.000571785
-0.000412109
-0.000603758
-0.000275811
-0.000611815
-0.000141511
-0.000602396
-7.90884e-06
-0.000577998
0.000124162
-0.000539219
0.000255757
-0.000486641
0.000390504
-0.000422577
0.000534499
-0.000352853
0.000697686
-0.000289532
0.000895493
-0.000257416
0.00115301
-0.000300757
0.00151803
-0.000456732
0.0021117
-0.00065867
0.00322131
-0.0011846
0.00479552
-0.0014972
0.00465054
0.000979758
-0.00157969
0.00261939
0.00111806
0.00170316
0.00335032
0.00195021
0.00435273
0.00224374
0.0048566
0.00195432
0.00517158
0.00131407
0.00540073
0.000520783
0.00558027
-0.000309132
0.0056809
-0.00109598
0.00564002
-0.00177332
0.00540671
-0.00228893
0.00496946
-0.00261671
0.00435626
-0.00275611
0.00361988
-0.00272761
0.0028203
-0.00256159
0.00200744
-0.00228125
0.00123003
-0.00193111
0.000519646
-0.0015369
-7.19277e-05
-0.00118101
-0.000499794
-0.00090136
-0.000761429
-0.000721981
-0.000905761
-0.000592155
-0.000981444
-0.000484337
-0.00101597
-0.000377577
-0.00102698
-0.000264791
-0.00102312
-0.000145371
-0.00100793
-2.31031e-05
-0.000980947
9.71825e-05
-0.000939437
0.000214245
-0.000880747
0.000331813
-0.000803915
0.000457667
-0.00071078
0.00060455
-0.000608039
0.000792746
-0.000509563
0.00105452
-0.000429204
0.00143764
-0.000335583
0.00201811
-5.42381e-05
0.00294027
0.000427578
0.00431411
0.000799114
0.00427944
0.00193008
0.00288115
0.00456912
0.00486965
0.00164968
0.00535609
0.0017573
0.00559254
0.00171787
0.00582439
0.00108222
0.00601292
0.000332259
0.00608054
-0.000376727
0.00595555
-0.000970979
0.00560454
-0.0014223
0.00504007
-0.00172447
0.00430899
-0.00188564
0.00346933
-0.00191646
0.00257919
-0.00183749
0.00169322
-0.00167563
0.000844143
-0.00143218
7.52219e-05
-0.00116219
-0.000549735
-0.000911953
-0.000985285
-0.000745475
-0.00124944
-0.000637211
-0.00140129
-0.000570128
-0.00148111
-0.000512329
-0.00151854
-0.000446884
-0.00152977
-0.000366329
-0.00152461
-0.000269939
-0.00150927
-0.000160703
-0.00148756
-4.48196e-05
-0.00145943
6.90456e-05
-0.0014204
0.000175213
-0.001365
0.000276404
-0.00128925
0.000381917
-0.00119103
0.000506333
-0.00106952
0.000671225
-0.000921405
0.000906342
-0.0007275
0.00124359
-0.000415979
0.00170641
0.000166615
0.00235764
0.00107974
0.00340119
0.00151751
0.00384192
0.00360844
0.00793052
0.0053675
0.0058099
0.00387792
0.00556168
0.00196612
0.00563426
0.00100969
0.00560004
0.000366524
0.00535761
-0.000134254
0.00489591
-0.000509251
0.00425536
-0.00078175
0.0034892
-0.000958322
0.00264992
-0.00104639
0.00177818
-0.00104474
0.000909762
-0.000969092
7.91933e-05
-0.000845077
-0.00065254
-0.000700461
-0.00122382
-0.000590934
-0.00161924
-0.000516557
-0.00187602
-0.00048871
-0.00202948
-0.000483748
-0.00211911
-0.000480476
-0.00216813
-0.000463276
-0.00218953
-0.000425429
-0.00219088
-0.000364937
-0.00217791
-0.000282887
-0.00215577
-0.000182837
-0.00212947
-7.11468e-05
-0.00210259
4.2129e-05
-0.00207319
0.000145794
-0.00203609
0.000239291
-0.00198576
0.000331609
-0.00191529
0.000435899
-0.00181237
0.00056833
-0.00165363
0.000747542
-0.00140112
0.000990862
-0.000990325
0.00129525
-0.000258705
0.00162559
0.00101628
0.00212601
0.00162216
0.00323591
0.00539999
0.0040949
0.0015192
0.00449625
0.0034766
0.00372827
0.00273414
0.00322978
0.00150823
0.00288873
0.000707632
0.00252479
0.000229719
0.00207911
-6.3562e-05
0.00154135
-0.000243998
0.000929263
-0.000346249
0.000259049
-0.000376195
-0.000433151
-0.000352563
-0.00109007
-0.000312196
-0.00165863
-0.00027655
-0.00210281
-0.000256324
-0.0024256
-0.000268186
-0.00264002
-0.000302163
-0.00278148
-0.000347253
-0.00287688
-0.000388315
-0.00294227
-0.000415027
-0.00298454
-0.000420915
-0.00300719
-0.000402679
-0.00301297
-0.000359085
-0.00300484
-0.000290985
-0.00298606
-0.000201638
-0.0029603
-9.69864e-05
-0.00293256
1.42752e-05
-0.00290794
0.000121092
-0.00288447
0.000215784
-0.00285679
0.000303963
-0.0028182
0.000397429
-0.00275762
0.000507908
-0.00265326
0.000643289
-0.00246502
0.000802587
-0.00213453
0.0009645
-0.00159765
0.00108821
-0.000811521
0.00133926
-0.000386099
0.00280986
0.00519796
-0.00262508
-0.00679752
-0.00743166
-0.00747673
-0.00375693
-0.00215555
-0.00168158
0.00140127
-0.000767509
0.00182012
-0.000566514
0.00130729
-0.00064303
0.000784192
-0.000823444
0.000410162
-0.00105767
0.000170689
-0.00134119
3.95294e-05
-0.00167702
-1.04367e-05
-0.00204433
-8.90831e-06
-0.00241363
1.67152e-05
-0.00276029
3.44194e-05
-0.00305908
2.2187e-05
-0.00328974
-2.57234e-05
-0.00345181
-0.00010616
-0.00356505
-0.000188934
-0.00365211
-0.000260153
-0.00372394
-0.000316405
-0.00378344
-0.000355396
-0.0038303
-0.000373904
-0.0038641
-0.000368736
-0.00388534
-0.000337749
-0.00389552
-0.000280794
-0.00389669
-0.000200544
-0.00389063
-0.000103208
-0.00387644
-1.38915e-07
-0.00385029
9.47504e-05
-0.00380873
0.000174093
-0.00375146
0.000246663
-0.00367666
0.000322725
-0.00358202
0.000413489
-0.0034654
0.000526949
-0.00331964
0.000657095
-0.00315158
0.000796648
-0.00314809
0.00108483
-0.0037547
0.0019458
-0.00381685
0.00287169
0.00157738
-0.00737248
0.00102876
-0.00814262
-0.00670656
-0.0071902
-0.00310793
-0.00566666
-0.000122212
-0.0045743
0.00072782
-0.00398427
0.000717335
-0.003727
0.000526987
-0.0036615
0.000344709
-0.00370316
0.000212377
-0.00379574
0.000132119
-0.00389861
9.24278e-05
-0.00398765
8.00885e-05
-0.00404989
7.88874e-05
-0.00408759
7.20348e-05
-0.00411644
5.09568e-05
-0.00415042
8.19423e-06
-0.00419666
-5.99378e-05
-0.00425587
-0.000129689
-0.00432684
-0.000189084
-0.00440756
-0.00023554
-0.00449506
-0.000267704
-0.00458536
-0.000283416
-0.00467319
-0.000280759
-0.00475197
-0.000258894
-0.0048145
-0.000218294
-0.00485425
-0.000160945
-0.00486685
-9.0855e-05
-0.00485241
-1.48883e-05
-0.00480642
4.84512e-05
-0.00472641
9.38352e-05
-0.00460991
0.000130024
-0.00445283
0.000165628
-0.00424745
0.00020822
-0.00398367
0.000263377
-0.00365433
0.000328027
-0.0032365
0.000379109
-0.00252125
0.000369844
-0.00082903
0.000253794
0.000962811
0.0010799
0.00273795
0.00157075
-0.00507092
-0.00811545
-0.00817808
-0.00739581
-0.00663187
-0.00606502
-0.00568529
-0.00544097
-0.0052786
-0.00515655
-0.00504664
-0.00493723
-0.00483379
-0.00475067
-0.00470984
-0.00473696
-0.00483392
-0.00499057
-0.00519422
-0.00543082
-0.00568408
-0.00593568
-0.00616636
-0.0063572
-0.00649124
-0.00655551
-0.00654398
-0.0064692
-0.00634912
-0.00619308
-0.00600184
-0.00576866
-0.00548121
-0.00513022
-0.0047294
-0.00433917
-0.00406634
-0.00296888
)
;

boundaryField
{
    floor
    {
        type            calculated;
        value           nonuniform List<scalar> 
36
(
0
0
0
0
0
0
0
0
0
0
0
0
0
0
0
0
0
0
0
-6.43864e-06
-1.68831e-05
-2.60301e-05
-3.4301e-05
-3.49289e-05
-2.88556e-05
-2.86983e-05
-2.91994e-06
-5.44106e-06
-5.68733e-06
-5.90753e-06
-4.854e-06
-8.93808e-06
-1.02114e-05
-1.28324e-05
-1.44575e-05
-1.54456e-05
)
;
    }
    ceiling
    {
        type            calculated;
        value           nonuniform List<scalar> 
43
(
-5.79446e-05
-6.48618e-05
-6.3323e-05
-5.94992e-05
-5.43472e-05
-4.64997e-05
-3.97697e-05
-3.49667e-05
-3.19144e-05
-3.02602e-05
-2.96781e-05
-2.98927e-05
-3.06125e-05
-3.1495e-05
-3.22316e-05
-3.26787e-05
-3.28025e-05
-3.26777e-05
-3.23195e-05
-3.17272e-05
-3.09301e-05
-3.00036e-05
-2.90604e-05
-2.82172e-05
-2.75563e-05
-2.71051e-05
-2.68397e-05
-2.67005e-05
-2.66046e-05
-2.64563e-05
-2.61647e-05
-2.56693e-05
-2.49424e-05
-2.39852e-05
-2.28269e-05
-2.15275e-05
-2.01695e-05
-1.88021e-05
-1.73389e-05
-1.57907e-05
1.93352e-05
1.5188e-05
-0.000246598
)
;
    }
    sWall
    {
        type            calculated;
        value           nonuniform List<scalar> 9(-0.000140236 -0.000164524 -0.000194258 -0.000225978 -0.000245157 -0.00028109 -0.000423777 -0.000453794 -0.000484048);
    }
    nWall
    {
        type            calculated;
        value           nonuniform List<scalar> 
14
(
-9.04142e-05
-9.76402e-05
-0.000103188
-0.000104784
-0.000117314
-0.000131549
-0.000144788
-0.000150867
-0.000160732
-0.000169554
-0.000184364
-0.000196719
-0.000197514
-0.000214847
)
;
    }
    sideWalls
    {
        type            empty;
        value           nonuniform 0();
    }
    glass1
    {
        type            calculated;
        value           nonuniform List<scalar> 9(-6.40344e-05 -0.000170321 -0.000257922 -0.000331205 -0.000393188 -0.000446393 -0.000492205 -0.000535487 -0.000587169);
    }
    glass2
    {
        type            calculated;
        value           nonuniform List<scalar> 2(-0.000368173 -0.0003858);
    }
    sun
    {
        type            calculated;
        value           uniform 0;
    }
    Table_master
    {
        type            calculated;
        value           nonuniform List<scalar> 9(-1.53993e-07 -1.5411e-07 -1.54142e-07 -1.54162e-07 -1.54175e-07 -1.5418e-07 -1.54178e-07 -1.54164e-07 -1.54111e-07);
    }
    Table_slave
    {
        type            calculated;
        value           nonuniform List<scalar> 9(1.53662e-07 1.53718e-07 1.53717e-07 1.53734e-07 1.53755e-07 1.53799e-07 1.53866e-07 1.53959e-07 1.54087e-07);
    }
    inlet
    {
        type            calculated;
        value           uniform -0.0116483;
    }
    outlet
    {
        type            calculated;
        value           nonuniform List<scalar> 2(0.00984636 0.0122833);
    }
}


// ************************************************************************* //
