/*--------------------------------*- C++ -*----------------------------------*\
  =========                 |
  \\      /  F ield         | OpenFOAM: The Open Source CFD Toolbox
   \\    /   O peration     | Website:  https://openfoam.org
    \\  /    A nd           | Version:  6
     \\/     M anipulation  |
\*---------------------------------------------------------------------------*/
FoamFile
{
    version     2.0;
    format      ascii;
    class       volScalarField;
    location    "870";
    object      alphat;
}
// * * * * * * * * * * * * * * * * * * * * * * * * * * * * * * * * * * * * * //

dimensions      [1 -1 -1 0 0 0 0];

internalField   nonuniform List<scalar> 
458
(
0.00124418
0.00135532
0.00138601
0.00145233
0.00151343
0.00157128
0.00162915
0.00168792
0.00173597
0.00176617
0.0017696
0.00173746
0.00165869
0.00149196
0.00113184
0.000559139
0.000655509
0.0007432
0.000774931
0.000762795
0.000713801
0.0006596
0.000611105
0.000569101
0.000532619
0.000500758
0.000472882
0.000448162
0.000425649
0.000404296
0.000382855
0.000370106
0.00034012
0.00167653
0.00377418
0.00348137
0.00398897
0.00449515
0.00501587
0.00548317
0.00584464
0.00621605
0.00656382
0.00684284
0.00701223
0.00702773
0.00678254
0.00551181
0.00149415
0.00123957
0.00101128
0.000554614
0.00131637
0.00191842
0.00238449
0.00253185
0.0018452
0.00155769
0.00136207
0.00121769
0.00110707
0.00101929
0.000943597
0.000872492
0.000801505
0.000738098
0.000684926
0.00083789
0.0004471
0.00203705
0.00507241
0.00418637
0.00510415
0.00548999
0.00576098
0.0059693
0.00616169
0.00642968
0.00675565
0.00711195
0.00746094
0.00773597
0.00783144
0.00737846
0.0060132
0.00455706
0.00119447
0.000854267
0.0014742
0.00214511
0.00281236
0.00300286
0.000959422
0.000839952
0.00074055
0.000660039
0.000595065
0.000542411
0.00049961
0.000464995
0.000438071
0.000485421
0.000562179
0.000983149
0.000528366
0.00238388
0.0064784
0.00407236
0.00528759
0.00549867
0.00547756
0.00545799
0.00555018
0.00576834
0.00609121
0.00650146
0.0069587
0.00735846
0.00760889
0.00755113
0.00715997
0.00614487
0.00337373
0.00137604
0.00175178
0.00240801
0.00321164
0.00390829
0.00394253
0.00108061
0.000990497
0.000929118
0.00088381
0.000845496
0.000807416
0.000771265
0.00073307
0.000688431
0.00064844
0.000639035
0.00117179
0.000608544
0.00273794
0.00836941
0.00427152
0.00501912
0.00532062
0.0051402
0.00499328
0.00507682
0.00530734
0.00564357
0.00608615
0.00658775
0.0069796
0.00717396
0.00716818
0.00703061
0.00662514
0.00547853
0.00496533
0.00500078
0.00529171
0.00563841
0.00585116
0.00575494
0.00490989
0.00447537
0.00423593
0.00406442
0.00389087
0.00366748
0.00328728
0.00279775
0.00224101
0.00170473
0.00127873
0.00119152
0.00103429
0.000813313
0.000860751
0.000935579
0.00311676
0.0104983
0.00584954
0.004647
0.00506396
0.00505291
0.00486509
0.00493481
0.00517015
0.00550678
0.00595589
0.00643676
0.00679963
0.0069151
0.00680448
0.00664667
0.0065755
0.00648085
0.00667541
0.00701306
0.00724985
0.00729183
0.00713202
0.00679793
0.00633132
0.00595218
0.00565702
0.00539697
0.00514151
0.00487033
0.00452008
0.00403989
0.00343254
0.0027457
0.00210999
0.00153018
0.00125769
0.00109698
0.00138125
0.000970511
0.00348939
0.0121026
0.00872533
0.00571126
0.00496965
0.00504034
0.00510354
0.00514037
0.00527419
0.00557141
0.00601345
0.00649001
0.0068226
0.00685906
0.00664965
0.00649811
0.00674697
0.00729942
0.00786179
0.00817889
0.00817929
0.00790699
0.00744607
0.00688506
0.00632607
0.00587615
0.00553545
0.00525912
0.00501732
0.00480016
0.00460269
0.0043445
0.00392004
0.00335283
0.00276368
0.00219771
0.00182827
0.00167481
0.00159635
0.00115313
0.003579
0.0112149
0.00952723
0.00799887
0.00682939
0.0063113
0.00582409
0.00549422
0.00549031
0.00577432
0.0062315
0.006702
0.00698149
0.00691661
0.00666016
0.0067237
0.00743533
0.0080193
0.00832334
0.00830909
0.00797888
0.00740793
0.00670558
0.00599705
0.00540806
0.00499514
0.00471661
0.00451654
0.00436835
0.00426849
0.00422415
0.00422621
0.00411319
0.00377609
0.00344758
0.00326446
0.00334405
0.0035301
0.00419324
0.00178526
0.00350484
0.00423036
0.00467525
0.00492471
0.00496191
0.00488868
0.00489239
0.00510084
0.00552077
0.00605459
0.00659971
0.00702824
0.00716486
0.00691784
0.00684812
0.00720898
0.00762604
0.00776868
0.00766471
0.0073021
0.00669443
0.00594398
0.00519468
0.00457954
0.00415373
0.00388249
0.00370055
0.00356226
0.00344431
0.0033336
0.00322013
0.00309556
0.0029826
0.00288481
0.00281995
0.00278332
0.00271382
0.00257094
0.00239737
0.00166672
0.00157953
0.00276012
0.00377627
0.00457227
0.00530149
0.00601071
0.00657223
0.00694829
0.00719223
0.00722463
0.00698653
0.00669798
0.00669944
0.00681912
0.00672707
0.00645612
0.006029
0.0054541
0.00479286
0.00414667
0.0036321
0.00328547
0.00307285
0.00294234
0.0028557
0.0027925
0.00274403
0.00270829
0.00268823
0.00269448
0.00271021
0.00272423
0.00272494
0.00268178
0.00254877
0.00231447
0.00202425
0.00134112
0.00238082
0.00465424
0.00595248
0.00679312
0.00744637
0.007496
0.00710443
0.00671137
0.00637312
0.00573464
0.00528176
0.00517697
0.00510588
0.004906
0.00460481
0.00423142
0.00379375
0.00333319
0.00291792
0.00259496
0.00237212
0.00224359
0.00218332
0.00217028
0.00219148
0.00223864
0.00230466
0.00238103
0.00247043
0.00257306
0.00268289
0.00279074
0.00287851
0.00292231
0.00288141
0.00284572
0.00261998
0.00135861
0.0024916
0.00255349
0.00260942
0.00289319
0.00272885
0.00241395
0.00203336
0.00172851
0.00154199
0.00136517
0.00120963
0.00108794
0.000984898
0.000906834
0.000852589
0.000812963
0.000781097
0.000753687
0.000731062
0.000715794
0.000710096
0.000714365
0.000727054
0.000745708
0.000769278
0.000797208
0.000829338
0.000865858
0.000907377
0.000955181
0.00100958
0.00107016
0.00113724
0.00121112
0.00129186
0.00138859
0.0014309
0.00140156
0.00130362
0.00120553
)
;

boundaryField
{
    floor
    {
        type            compressible::alphatWallFunction;
        Prt             0.85;
        value           nonuniform List<scalar> 
36
(
0.000160692
7.82061e-05
9.26119e-05
0.000105497
0.000110114
0.000108351
0.0001012
9.32184e-05
8.60097e-05
7.9709e-05
7.41898e-05
6.93313e-05
6.50486e-05
6.12242e-05
5.77178e-05
5.43702e-05
5.09858e-05
4.89621e-05
4.4166e-05
4.41654e-05
6.10599e-05
7.35445e-05
8.56287e-05
0.000115677
0.000122503
0.000133175
0.00016069
0.000210164
0.000175567
0.000143849
7.82052e-05
0.000143847
7.75217e-05
0.000169357
0.000121557
0.000194205
)
;
    }
    ceiling
    {
        type            compressible::alphatWallFunction;
        Prt             0.85;
        value           nonuniform List<scalar> 
43
(
0.000340273
0.000348136
0.000355226
0.000391029
0.000370423
0.000330517
0.000281519
0.000241551
0.000216719
0.000192863
0.000171587
0.000154723
0.000140271
0.000129205
0.00012145
0.000115748
0.000111138
0.000107155
0.000103854
0.00010162
0.000100784
0.00010141
0.000103268
0.000105993
0.000109423
0.000113472
0.000118109
0.000123354
0.000129285
0.000136074
0.000143752
0.000152246
0.000161586
0.000171801
0.000182882
0.000196058
0.000201787
0.000197816
0.000184491
0.000171034
0.000467127
0.000555331
0.00032605
)
;
    }
    sWall
    {
        type            compressible::alphatWallFunction;
        Prt             0.85;
        value           uniform 0.000339031;
    }
    nWall
    {
        type            compressible::alphatWallFunction;
        Prt             0.85;
        value           nonuniform List<scalar> 6(0.000132956 0.000137898 0.00016343 0.000189265 0.000191643 0.000170693);
    }
    sideWalls
    {
        type            empty;
    }
    glass1
    {
        type            compressible::alphatWallFunction;
        Prt             0.85;
        value           nonuniform List<scalar> 9(0.000171668 0.000229177 0.000276005 0.000320301 0.000364885 0.000411967 0.000457744 0.000468813 0.000460004);
    }
    glass2
    {
        type            compressible::alphatWallFunction;
        Prt             0.85;
        value           nonuniform List<scalar> 2(0.000247087 0.000231544);
    }
    sun
    {
        type            compressible::alphatWallFunction;
        Prt             0.85;
        value           nonuniform List<scalar> 
14
(
0.000176219
0.000191389
0.000195557
0.000204531
0.000212756
0.000220511
0.000228237
0.000236051
0.000242418
0.00024641
0.000246862
0.000242614
0.000232167
0.000209869
)
;
    }
    Table_master
    {
        type            compressible::alphatWallFunction;
        Prt             0.85;
        value           nonuniform List<scalar> 9(0.000136688 0.000119649 0.000105253 9.34221e-05 8.37457e-05 7.58083e-05 6.92855e-05 6.39588e-05 5.97807e-05);
    }
    Table_slave
    {
        type            compressible::alphatWallFunction;
        Prt             0.85;
        value           nonuniform List<scalar> 9(0.000153722 0.000141081 0.000132394 0.000125938 0.000120449 0.000114964 0.000109727 0.000104163 9.76155e-05);
    }
    inlet
    {
        type            fixedValue;
        value           uniform 1.94e-05;
    }
    outlet
    {
        type            zeroGradient;
    }
}


// ************************************************************************* //
