/*--------------------------------*- C++ -*----------------------------------*\
  =========                 |
  \\      /  F ield         | OpenFOAM: The Open Source CFD Toolbox
   \\    /   O peration     | Website:  https://openfoam.org
    \\  /    A nd           | Version:  6
     \\/     M anipulation  |
\*---------------------------------------------------------------------------*/
FoamFile
{
    version     2.0;
    format      ascii;
    class       volScalarField;
    location    "870";
    object      nut;
}
// * * * * * * * * * * * * * * * * * * * * * * * * * * * * * * * * * * * * * //

dimensions      [0 2 -1 0 0 0 0];

internalField   nonuniform List<scalar> 
458
(
0.00106949
0.00116395
0.00119025
0.0012472
0.00129965
0.00134931
0.00139899
0.00144943
0.00149066
0.00151656
0.00151945
0.00149183
0.00142422
0.00128112
0.000972028
0.000480414
0.000563174
0.000638497
0.00066577
0.000655359
0.000613276
0.000566719
0.000525062
0.00048898
0.000457641
0.000430273
0.000406328
0.000385094
0.000365756
0.000347413
0.000328995
0.000318047
0.000292302
0.00144205
0.00324169
0.00298994
0.0034259
0.00386065
0.00430787
0.00470918
0.00501955
0.00533827
0.00563652
0.00587565
0.00602081
0.00603413
0.00582388
0.00473308
0.00128309
0.00106451
0.000868521
0.000476546
0.00113089
0.00164809
0.00204854
0.00217521
0.0015853
0.00133829
0.00117023
0.00104619
0.000951158
0.000875752
0.000810719
0.000749633
0.000688649
0.00063418
0.000588508
0.000719967
0.000384227
0.00175333
0.0043575
0.00359586
0.00438433
0.00471595
0.0049489
0.00512792
0.00529313
0.00552289
0.00580203
0.00610706
0.00640607
0.00664216
0.00672455
0.00633604
0.00516386
0.0039135
0.00102585
0.000733934
0.00126646
0.00184284
0.00241619
0.00258001
0.000824319
0.000721673
0.00063627
0.000567097
0.000511273
0.000466034
0.00042926
0.000399521
0.000376389
0.000417079
0.000483039
0.000844778
0.000454067
0.00205325
0.00556653
0.00349838
0.00454261
0.00472441
0.00470671
0.00469019
0.00476942
0.00495624
0.00523232
0.0055832
0.00597483
0.00631795
0.00653353
0.00648455
0.00614899
0.00527734
0.00289751
0.00118184
0.00150464
0.00206849
0.00275912
0.00335799
0.00338774
0.000928619
0.000851228
0.000798515
0.000759605
0.000726698
0.000693984
0.000662923
0.000630102
0.000591737
0.000557312
0.000549175
0.00100696
0.000522986
0.00235979
0.00719331
0.00366997
0.00431253
0.00457223
0.00441792
0.00429226
0.00436424
0.00456149
0.00484862
0.00522685
0.00565628
0.00599261
0.00616017
0.00615605
0.00603845
0.00569039
0.00470565
0.00426505
0.00429586
0.0045463
0.0048448
0.00502824
0.00494611
0.00422023
0.00384701
0.00364138
0.00349409
0.00334499
0.00315298
0.0028261
0.00240522
0.00192653
0.00146541
0.00109909
0.00102402
0.000888899
0.000699193
0.000740167
0.000804517
0.00268793
0.0090262
0.00502678
0.00399326
0.00435215
0.0043435
0.00418308
0.0042434
0.00444446
0.0047315
0.00511503
0.00552656
0.00583802
0.00593807
0.00584423
0.00570951
0.0056488
0.00556768
0.00573522
0.00602592
0.00623016
0.00626706
0.00613047
0.00584392
0.00544327
0.00511763
0.00486408
0.00464062
0.00442103
0.00418786
0.00388661
0.00347359
0.00295124
0.00236053
0.00181382
0.00131524
0.00108097
0.000942962
0.00118743
0.000834445
0.00301091
0.0104114
0.0075018
0.00490955
0.00427216
0.00433357
0.00438908
0.00442078
0.00453409
0.0047868
0.00516399
0.00557185
0.00585762
0.0058903
0.00571207
0.00558307
0.00579757
0.00627272
0.00675654
0.00702979
0.00703095
0.00679769
0.00640211
0.00592027
0.00543997
0.00505331
0.00476045
0.00452288
0.00431494
0.00412813
0.00395819
0.00373596
0.00337076
0.00288282
0.00237604
0.00188925
0.00157156
0.00143968
0.0013723
0.000991388
0.00309065
0.00966267
0.00820322
0.00688402
0.00587609
0.00543011
0.0050111
0.00472561
0.00471902
0.00495959
0.00534972
0.00575292
0.00599402
0.00594053
0.00572248
0.00577859
0.0063911
0.00689359
0.00715552
0.00714393
0.0068607
0.00637035
0.00576682
0.00515779
0.00465141
0.00429636
0.00405683
0.00388475
0.00375725
0.00367129
0.00363304
0.00363466
0.00353724
0.00324712
0.00296443
0.00280677
0.00287508
0.00303511
0.00360551
0.0015358
0.00302996
0.00365334
0.00403426
0.00424614
0.00427552
0.00421054
0.00421088
0.00438533
0.00474119
0.00519606
0.00566284
0.00603187
0.00615223
0.00594342
0.00588636
0.00619785
0.00655709
0.0066802
0.00659125
0.00627988
0.00575769
0.00511256
0.00446828
0.00393927
0.00357305
0.00333975
0.00318324
0.00306425
0.00296275
0.00286748
0.00276984
0.00266267
0.00256552
0.00248144
0.00242576
0.00239445
0.00233493
0.00221226
0.00206311
0.00143465
0.00133516
0.00234654
0.00322174
0.00390662
0.00453211
0.00514149
0.00562599
0.00595324
0.00616813
0.00620152
0.00600263
0.00575806
0.00576087
0.00586449
0.00578571
0.00555297
0.00518588
0.0046916
0.00412297
0.00356721
0.00312461
0.00282645
0.00264354
0.00253127
0.00245673
0.00240236
0.00236066
0.00232991
0.00231266
0.00231805
0.00233161
0.00234374
0.00234446
0.00230749
0.00219324
0.00199181
0.00174218
0.00115434
0.00201493
0.00395779
0.00507611
0.00580152
0.00636614
0.00641588
0.00608811
0.00575852
0.00547429
0.00492914
0.00454174
0.00445258
0.00439188
0.0042202
0.00396128
0.0036402
0.00326378
0.00286764
0.00251042
0.00223258
0.00204088
0.0019303
0.00187845
0.00186724
0.00188548
0.00192605
0.00198286
0.00204858
0.0021255
0.00221381
0.00230833
0.00240117
0.00247678
0.00251458
0.00247954
0.002449
0.00225473
0.00116934
0.00211917
0.00217152
0.00221906
0.00246884
0.00233353
0.00206785
0.00174458
0.00148467
0.00132531
0.00117384
0.00104038
0.000935857
0.000847302
0.000780191
0.000733549
0.000699474
0.000672069
0.000648495
0.000629035
0.000615903
0.000611002
0.000614676
0.000625594
0.000641645
0.000661924
0.000685955
0.0007136
0.000745023
0.000780747
0.00082188
0.000868691
0.000920819
0.00097854
0.00104212
0.0011116
0.00119488
0.00123133
0.00120611
0.00112184
0.00103757
)
;

boundaryField
{
    floor
    {
        type            nutkWallFunction;
        Cmu             0.09;
        kappa           0.41;
        E               9.8;
        value           nonuniform List<scalar> 
36
(
0.000117422
5.7207e-05
6.77296e-05
7.71417e-05
8.05158e-05
7.92297e-05
7.4006e-05
6.81757e-05
6.29093e-05
5.83059e-05
5.42733e-05
5.07232e-05
4.75936e-05
4.47988e-05
4.22362e-05
3.97895e-05
3.73157e-05
3.58367e-05
3.23316e-05
3.23315e-05
4.46836e-05
5.38103e-05
6.26447e-05
8.46275e-05
8.96373e-05
9.74402e-05
0.000117422
0.000153533
0.000128279
0.000105127
5.7207e-05
0.000105127
5.67097e-05
0.000123754
8.88778e-05
0.000141902
)
;
    }
    ceiling
    {
        type            nutkWallFunction;
        Cmu             0.09;
        kappa           0.41;
        E               9.8;
        value           nonuniform List<scalar> 
43
(
0.000246192
0.000251845
0.000256967
0.00028377
0.000269358
0.000240742
0.000205364
0.000176393
0.000158355
0.00014098
0.00012546
0.000113145
0.000102587
9.44994e-05
8.88307e-05
8.46622e-05
8.12922e-05
7.838e-05
7.59664e-05
7.43326e-05
7.37219e-05
7.41798e-05
7.55388e-05
7.75314e-05
8.00404e-05
8.30017e-05
8.63931e-05
9.0229e-05
9.45668e-05
9.95325e-05
0.000105149
0.000111361
0.000118193
0.000125665
0.000133772
0.000143413
0.000147608
0.000144707
0.000134962
0.000125133
0.0003432
0.000407603
0.000234812
)
;
    }
    sWall
    {
        type            nutkWallFunction;
        Cmu             0.09;
        kappa           0.41;
        E               9.8;
        value           uniform 0.000246258;
    }
    nWall
    {
        type            nutkWallFunction;
        Cmu             0.09;
        kappa           0.41;
        E               9.8;
        value           nonuniform List<scalar> 6(9.74408e-05 0.000101045 0.000119711 0.000138739 0.000140475 0.00012514);
    }
    sideWalls
    {
        type            empty;
    }
    glass1
    {
        type            nutkWallFunction;
        Cmu             0.09;
        kappa           0.41;
        E               9.8;
        value           nonuniform List<scalar> 9(0.000128968 0.000171818 0.000206656 0.000239583 0.000272706 0.00030766 0.00034163 0.000349967 0.000343648);
    }
    glass2
    {
        type            nutkWallFunction;
        Cmu             0.09;
        kappa           0.41;
        E               9.8;
        value           nonuniform List<scalar> 2(0.000182235 0.000170843);
    }
    sun
    {
        type            nutkWallFunction;
        Cmu             0.09;
        kappa           0.41;
        E               9.8;
        value           nonuniform List<scalar> 
14
(
0.000128864
0.000139834
0.000142872
0.000149422
0.000155425
0.000161085
0.000166723
0.000172425
0.00017707
0.000179979
0.000180304
0.000177201
0.000169577
0.000153307
)
;
    }
    Table_master
    {
        type            nutkWallFunction;
        Cmu             0.09;
        kappa           0.41;
        E               9.8;
        value           nonuniform List<scalar> 9(9.98251e-05 8.73818e-05 7.68681e-05 6.82278e-05 6.1161e-05 5.53643e-05 5.06006e-05 4.67105e-05 4.36593e-05);
    }
    Table_slave
    {
        type            nutkWallFunction;
        Cmu             0.09;
        kappa           0.41;
        E               9.8;
        value           nonuniform List<scalar> 9(0.000112284 0.000103056 9.67152e-05 9.20028e-05 8.79953e-05 8.39898e-05 8.01658e-05 7.61017e-05 7.13184e-05);
    }
    inlet
    {
        type            calculated;
        value           uniform 0.000167705;
    }
    outlet
    {
        type            calculated;
        value           nonuniform List<scalar> 2(0.00211917 0.00217152);
    }
}


// ************************************************************************* //
