/*--------------------------------*- C++ -*----------------------------------*\
  =========                 |
  \\      /  F ield         | OpenFOAM: The Open Source CFD Toolbox
   \\    /   O peration     | Website:  https://openfoam.org
    \\  /    A nd           | Version:  6
     \\/     M anipulation  |
\*---------------------------------------------------------------------------*/
FoamFile
{
    version     2.0;
    format      ascii;
    class       volScalarField;
    location    "42599.9999996916376";
    object      alphat;
}
// * * * * * * * * * * * * * * * * * * * * * * * * * * * * * * * * * * * * * //

dimensions      [1 -1 -1 0 0 0 0];

internalField   nonuniform List<scalar> 
778
(
0.00104098
0.00111052
0.0011065
0.00115452
0.00119854
0.00123852
0.00127576
0.00131167
0.00134784
0.00138628
0.00142296
0.00145782
0.00149216
0.00152909
0.0015676
0.000736908
0.00105558
0.00106423
0.00103856
0.000995513
0.000937927
0.000880503
0.000827598
0.000779918
0.000737187
0.000699124
0.000664938
0.000633795
0.000604725
0.00057643
0.000546841
0.00052225
0.000472676
0.00152466
0.00300717
0.00263921
0.00304622
0.00334145
0.00365445
0.0039667
0.00425453
0.00448635
0.0046215
0.00470108
0.00466876
0.00443627
0.0038597
0.0028191
0.00171651
0.00163662
0.00156657
0.00131836
0.00224615
0.0031138
0.00362658
0.00365084
0.00288098
0.00246393
0.00217494
0.00195556
0.00178097
0.00163202
0.0015004
0.00137796
0.0012582
0.00115071
0.00105802
0.00119134
0.000599243
0.00193414
0.00419857
0.00311332
0.00445319
0.00497566
0.0054177
0.00581918
0.00617262
0.00647223
0.00670741
0.00693534
0.0071754
0.00739623
0.00752799
0.00744164
0.00681383
0.00498339
0.00192157
0.00166354
0.00355866
0.00496631
0.00563272
0.00512295
0.00135197
0.00117571
0.00103969
0.000933238
0.000848491
0.000780068
0.00072425
0.000678851
0.000643456
0.000707377
0.000831991
0.00131665
0.000681658
0.00232909
0.00565803
0.00297898
0.00500692
0.00578041
0.00619401
0.00649803
0.00672294
0.00689093
0.0070274
0.00722147
0.00754951
0.00802824
0.00863019
0.00923518
0.00953326
0.00895151
0.00667589
0.00191388
0.00443439
0.00659431
0.00769119
0.00796206
0.00679753
0.00153925
0.00140012
0.00129246
0.00120292
0.0011266
0.00105803
0.000993373
0.000929154
0.000859808
0.000803277
0.000832432
0.00142468
0.000750518
0.00271835
0.00748989
0.00300534
0.00475951
0.00594881
0.00630134
0.00642903
0.00643363
0.00636956
0.00631311
0.00639451
0.00671321
0.00729797
0.00812597
0.00908617
0.00997065
0.0105322
0.0105266
0.00944801
0.00961362
0.00983303
0.00986311
0.00966241
0.00904437
0.00719801
0.00621811
0.00554696
0.00500145
0.00446656
0.00394847
0.00344158
0.00293523
0.00241486
0.00185512
0.00141593
0.00141302
0.00111804
0.000894467
0.00117329
0.00112605
0.00310128
0.00953985
0.00353787
0.00401343
0.00569949
0.00609066
0.00605891
0.00584049
0.00552854
0.00527137
0.0052658
0.00559944
0.00626548
0.00722531
0.00834884
0.00947092
0.0104266
0.0110371
0.0111484
0.0110361
0.0108392
0.0105606
0.0102033
0.00974935
0.00908714
0.00844926
0.00787016
0.00731013
0.00670568
0.00606028
0.00537085
0.00463138
0.00383715
0.00299459
0.00223254
0.00167639
0.00130098
0.00145535
0.00252119
0.00134844
0.00349201
0.011435
0.0047141
0.00328791
0.00512097
0.00576095
0.0056895
0.00533634
0.0048243
0.00437373
0.00436046
0.00478108
0.00554292
0.00661526
0.00783632
0.00904501
0.0100854
0.0108304
0.011173
0.0111459
0.0109
0.0105281
0.0101029
0.00967919
0.00926969
0.00889407
0.00854133
0.00816476
0.00771021
0.00716315
0.00651528
0.00576335
0.00491032
0.00397861
0.00306931
0.00222164
0.00163613
0.00145945
0.00255408
0.00158674
0.00382774
0.0128679
0.00642639
0.00313056
0.00405656
0.00510689
0.00525306
0.00496283
0.00435781
0.00374485
0.00388326
0.00443915
0.00529053
0.00639537
0.00766309
0.00892846
0.0100081
0.0107582
0.0110988
0.0110539
0.0107365
0.010269
0.00976648
0.00932121
0.00897814
0.00873311
0.00854216
0.00833469
0.00804628
0.00764258
0.00710745
0.00643747
0.00563932
0.00473791
0.00380348
0.00286113
0.00201258
0.00132964
0.00365101
0.00206494
0.00392901
0.0121742
0.00794964
0.00404664
0.00275038
0.00337013
0.00394305
0.00399112
0.00352372
0.00342489
0.00378048
0.00443389
0.00535377
0.00652467
0.00785287
0.00915719
0.0102333
0.010926
0.0111692
0.0110019
0.0105421
0.00993932
0.00934171
0.00886527
0.00856297
0.00841449
0.00834718
0.00826745
0.00810179
0.00781044
0.00737742
0.00680085
0.00608861
0.00526188
0.00435832
0.00334803
0.00200844
0.00160976
0.00548555
0.00235434
0.00384959
0.00981194
0.0082075
0.00555289
0.00366836
0.002841
0.0026909
0.00281714
0.00305366
0.00343037
0.0039646
0.00469963
0.0056994
0.0069611
0.00836111
0.00968381
0.010704
0.0112664
0.0113254
0.0109482
0.0102837
0.00951934
0.00883767
0.00837112
0.00815742
0.00813216
0.00817811
0.00817707
0.0080697
0.00783352
0.00746073
0.0069507
0.0063086
0.00554189
0.00461328
0.00323745
0.00157166
0.0027546
0.00564119
0.00239896
0.00360599
0.00838459
0.00793372
0.00635283
0.00489056
0.00393814
0.00346717
0.00336091
0.00355633
0.00391576
0.00443793
0.00521346
0.00631693
0.00769957
0.00917044
0.0104651
0.0113448
0.0116727
0.0114433
0.0107713
0.00985828
0.00894464
0.00825161
0.00790429
0.00786389
0.00797693
0.00809119
0.00809313
0.00797975
0.00775049
0.00740014
0.00692348
0.00631679
0.00555589
0.00442989
0.00250856
0.00173027
0.00343658
0.00537933
0.00237337
0.00328327
0.00755851
0.00765145
0.00672294
0.00572059
0.00496578
0.00452144
0.00436278
0.00440345
0.0046211
0.00510109
0.00596753
0.00724296
0.00877386
0.0102756
0.0114405
0.0120419
0.0119933
0.0113573
0.010321
0.00916521
0.00820145
0.007658
0.00754744
0.00763995
0.00778874
0.00788874
0.00786115
0.00773014
0.00749832
0.00715649
0.00669116
0.00608389
0.00525945
0.00368933
0.00179407
0.00221843
0.00374878
0.004933
0.00229596
0.00299351
0.00675808
0.00730304
0.00686594
0.00622359
0.0056836
0.00532458
0.00514959
0.00509879
0.00528622
0.00589661
0.00702914
0.00857218
0.0102285
0.0116319
0.0124758
0.0125984
0.0120052
0.0108633
0.00946138
0.00819489
0.00738553
0.00702845
0.00697716
0.00706969
0.00720221
0.00729473
0.0072745
0.00714791
0.00691591
0.00656592
0.00608045
0.00543524
0.0045166
0.00294009
0.00176123
0.00246764
0.00391067
0.00490629
0.00223557
0.00300328
0.00670638
0.0074602
0.00694727
0.00642773
0.00600221
0.00569562
0.00549774
0.00549307
0.00594737
0.00702409
0.00862837
0.0104362
0.0120329
0.0130532
0.0132809
0.0126897
0.0114132
0.00977423
0.00819255
0.00705044
0.00637603
0.00604523
0.00594481
0.00598522
0.00608987
0.0061843
0.00618401
0.00605625
0.00579776
0.00539369
0.00484169
0.0041671
0.00339379
0.00249202
0.00187983
0.00252854
0.00405936
0.00539991
0.00233488
0.00270952
0.00281953
0.00416528
0.00489763
0.00512532
0.0051306
0.00508294
0.00518191
0.00581671
0.00716076
0.00904328
0.0110677
0.0127943
0.0138608
0.0140563
0.0133397
0.0118826
0.009955
0.00811884
0.00668771
0.00572134
0.00514763
0.00485676
0.00473334
0.00470276
0.00472136
0.00474451
0.00469845
0.004516
0.00418956
0.00372788
0.00319788
0.00271583
0.00237427
0.00218649
0.00217879
0.0027858
0.00450402
0.00543461
0.00241975
0.000965349
0.00174098
0.00267124
0.00341689
0.00428387
0.00575874
0.00792178
0.0103103
0.0124707
0.014073
0.0148987
0.0148106
0.0138175
0.0120207
0.00988694
0.00786467
0.00626004
0.00517133
0.00455145
0.00422178
0.00402861
0.00389522
0.00379176
0.00370432
0.00361496
0.00348721
0.00327463
0.00298132
0.00265953
0.00240272
0.0022852
0.00231828
0.00248307
0.00280925
0.00349995
0.00531208
0.00578307
0.00245071
0.00178716
0.00247245
0.0035985
0.00560899
0.00833342
0.0110497
0.0131439
0.0146395
0.0155273
0.0157536
0.0152124
0.0138003
0.0117349
0.00941699
0.00730351
0.00571476
0.00476059
0.00427002
0.00400569
0.00383229
0.00370027
0.00359524
0.00351134
0.00344035
0.00336675
0.00326625
0.00312324
0.00295706
0.00281316
0.00274981
0.00280432
0.0029752
0.00324708
0.00364062
0.00426152
0.00550834
0.00620759
0.00241662
0.00323875
0.00785504
0.00724803
0.00649595
0.00825067
0.0109867
0.0132857
0.0148251
0.0156212
0.0157995
0.0154593
0.0145665
0.0130824
0.0110827
0.00886075
0.00685622
0.00545865
0.00469782
0.0043033
0.00405796
0.00387361
0.00372981
0.00362861
0.00357389
0.00356272
0.00358218
0.00360905
0.00361361
0.00358704
0.00355836
0.00355391
0.00359813
0.00370669
0.0038771
0.00408839
0.00431309
0.00452716
0.00470427
0.00471857
0.00232152
0.00309581
0.00598373
0.00774113
0.00990147
0.010987
0.0121036
0.012749
0.0128968
0.0126372
0.0120336
0.0111121
0.00989292
0.00845573
0.00699233
0.0057748
0.00495599
0.00443673
0.00410012
0.00385029
0.00364762
0.00348809
0.00338192
0.00334085
0.00337078
0.00346702
0.00361122
0.00377001
0.00389729
0.00397262
0.00403531
0.00411425
0.00422703
0.00438186
0.00457909
0.0048139
0.00507722
0.00534973
0.005611
0.00532517
0.00235846
0.00289496
0.00248008
0.00246704
0.00253757
0.002595
0.00251351
0.00235848
0.00217848
0.00199894
0.0018301
0.00167529
0.00153748
0.00142194
0.00133501
0.00127915
0.00124999
0.00124194
0.00124306
0.00125093
0.0012658
0.00128816
0.00131766
0.00135268
0.00139087
0.00142988
0.00146805
0.00150481
0.00154086
0.00157708
0.00161467
0.00165639
0.00170459
0.00176077
0.00182543
0.00189756
0.00197372
0.00205012
0.00213805
0.00227737
0.00228769
)
;

boundaryField
{
    floor
    {
        type            compressible::alphatWallFunction;
        Prt             0.85;
        value           nonuniform List<scalar> 
36
(
0.000219919
0.000104495
0.000149966
0.000151175
0.000147581
0.000141533
0.000133393
0.000125217
0.00011763
0.000110742
0.000104527
9.89541e-05
9.39178e-05
8.93025e-05
8.49693e-05
8.07271e-05
7.62635e-05
7.25312e-05
6.49402e-05
6.49394e-05
8.41504e-05
9.63861e-05
0.000106472
0.000127214
0.000166325
0.0001598
0.000219917
0.000239738
0.000229127
0.000219777
0.000104493
0.000219775
0.00018625
0.000266724
0.0002327
0.000265717
)
;
    }
    ceiling
    {
        type            compressible::alphatWallFunction;
        Prt             0.85;
        value           nonuniform List<scalar> 
43
(
0.000391205
0.000338828
0.000337172
0.000346151
0.000353451
0.000343141
0.000323394
0.000300276
0.000276999
0.000254892
0.000234423
0.000216027
0.00020047
0.000188684
0.000181077
0.000177095
0.000175996
0.000176152
0.000177228
0.000179254
0.000182303
0.000186325
0.000191098
0.0001963
0.000201605
0.000206787
0.000211764
0.000216628
0.0002215
0.000226535
0.000232099
0.000238505
0.00024595
0.000254495
0.000263999
0.000274003
0.000283991
0.000295351
0.000313163
0.000314699
0.000368225
0.000382053
0.000248587
)
;
    }
    sWall
    {
        type            compressible::alphatWallFunction;
        Prt             0.85;
        value           nonuniform List<scalar> 9(0.000507619 0.000477902 0.000438217 0.00040225 0.000403461 0.00036665 0.000432076 0.000414401 0.000389453);
    }
    nWall
    {
        type            compressible::alphatWallFunction;
        Prt             0.85;
        value           nonuniform List<scalar> 
14
(
0.000159353
0.000189899
0.000221996
0.000327928
0.000324614
0.000314683
0.000307026
0.000320132
0.000330661
0.000334595
0.000329847
0.000317927
0.000323209
0.000314018
)
;
    }
    sideWalls
    {
        type            empty;
    }
    glass1
    {
        type            compressible::alphatWallFunction;
        Prt             0.85;
        value           nonuniform List<scalar> 9(0.000143927 0.000209134 0.000262691 0.000313299 0.000362371 0.000409992 0.000457998 0.000498854 0.000511225);
    }
    glass2
    {
        type            compressible::alphatWallFunction;
        Prt             0.85;
        value           nonuniform List<scalar> 2(0.000282709 0.000319933);
    }
    sun
    {
        type            compressible::alphatWallFunction;
        Prt             0.85;
        value           nonuniform List<scalar> 
14
(
0.000147961
0.000157643
0.000157082
0.000163748
0.00016983
0.000175334
0.00018044
0.000185349
0.000190277
0.000195499
0.000200467
0.000205174
0.0002098
0.00021476
)
;
    }
    Table_master
    {
        type            compressible::alphatWallFunction;
        Prt             0.85;
        value           nonuniform List<scalar> 9(0.000191097 0.000166928 0.000147996 0.000132977 0.000120877 0.000111003 0.000102871 9.62016e-05 9.09642e-05);
    }
    Table_slave
    {
        type            compressible::alphatWallFunction;
        Prt             0.85;
        value           nonuniform List<scalar> 9(0.000216392 0.000197638 0.000182982 0.000170689 0.000160126 0.000150567 0.000141487 0.0001324 0.000122503);
    }
    inlet
    {
        type            fixedValue;
        value           uniform 1.94e-05;
    }
    outlet
    {
        type            zeroGradient;
    }
}


// ************************************************************************* //
