/*--------------------------------*- C++ -*----------------------------------*\
  =========                 |
  \\      /  F ield         | OpenFOAM: The Open Source CFD Toolbox
   \\    /   O peration     | Website:  https://openfoam.org
    \\  /    A nd           | Version:  6
     \\/     M anipulation  |
\*---------------------------------------------------------------------------*/
FoamFile
{
    version     2.0;
    format      ascii;
    class       volVectorField;
    location    "42599.9999996916376";
    object      U;
}
// * * * * * * * * * * * * * * * * * * * * * * * * * * * * * * * * * * * * * //

dimensions      [0 1 -1 0 0 0 0];

internalField   nonuniform List<vector> 
778
(
(0.0655949 0.0794095 0)
(-0.155181 0.0157686 0)
(-0.164314 0.0146293 0)
(-0.192439 0.0122808 0)
(-0.216886 0.0087317 0)
(-0.236959 0.00475102 0)
(-0.252099 0.000423431 0)
(-0.261883 -0.00436367 0)
(-0.265794 -0.00980882 0)
(-0.262828 -0.0161923 0)
(-0.251029 -0.0242697 0)
(-0.226326 -0.0348937 0)
(-0.186191 -0.050422 0)
(-0.144242 -0.0752027 0)
(-0.150137 -0.108611 0)
(0.0546139 0.0354919 0)
(0.015695 -0.0268688 0)
(0.0448649 -0.0232632 0)
(0.0692502 -0.01616 0)
(0.0843006 -0.010353 0)
(0.0915067 -0.00641471 0)
(0.0943414 -0.004335 0)
(0.095371 -0.00331159 0)
(0.095817 -0.00272539 0)
(0.0959813 -0.00231366 0)
(0.0958535 -0.00195071 0)
(0.0953271 -0.00151168 0)
(0.094072 -0.000759044 0)
(0.0912301 0.000843412 0)
(0.0850355 0.00406332 0)
(0.0735138 0.00776667 0)
(0.0598766 0.0116085 0)
(-0.00794652 0.0299656 0)
(0.258391 0.167398 0)
(-0.161239 0.0484008 0)
(-0.141615 0.0459909 0)
(-0.174026 0.0416283 0)
(-0.199399 0.0356845 0)
(-0.220132 0.0291482 0)
(-0.236177 0.0220784 0)
(-0.247444 0.0142477 0)
(-0.253636 0.00531251 0)
(-0.253968 -0.00514229 0)
(-0.247822 -0.0170807 0)
(-0.234122 -0.0308587 0)
(-0.214217 -0.0480955 0)
(-0.197646 -0.0699918 0)
(-0.194139 -0.0826856 0)
(-0.166515 -0.0425989 0)
(-0.105414 -0.0364301 0)
(-0.0983394 -0.0445285 0)
(0.10933 -0.0419965 0)
(0.0644211 -0.0411115 0)
(0.071828 -0.0322387 0)
(0.0857847 -0.0206998 0)
(0.0936683 -0.0104571 0)
(0.0958983 -0.00363966 0)
(0.0956624 -0.000189213 0)
(0.0952762 0.00126203 0)
(0.0952388 0.00190862 0)
(0.0953176 0.00227731 0)
(0.0953224 0.00259361 0)
(0.0952208 0.00313143 0)
(0.0949294 0.00440958 0)
(0.0936735 0.00772131 0)
(0.088082 0.0167449 0)
(0.0743403 0.0253145 0)
(0.0630181 0.0329204 0)
(-0.0520031 0.0635024 0)
(0.429966 0.253964 0)
(-0.194236 0.0847747 0)
(-0.112792 0.0784494 0)
(-0.148265 0.0669769 0)
(-0.170705 0.0555266 0)
(-0.188809 0.0437588 0)
(-0.202658 0.0313792 0)
(-0.212363 0.0180427 0)
(-0.217727 0.00343004 0)
(-0.218098 -0.0126099 0)
(-0.21285 -0.0303144 0)
(-0.201751 -0.0499135 0)
(-0.186115 -0.0715891 0)
(-0.169587 -0.093247 0)
(-0.151222 -0.10461 0)
(-0.120378 -0.093197 0)
(-0.079666 -0.0950181 0)
(-0.0715622 -0.107694 0)
(0.0920837 -0.0880452 0)
(0.062518 -0.0656653 0)
(0.0742967 -0.046066 0)
(0.087908 -0.0292025 0)
(0.0947158 -0.0148647 0)
(0.0917886 -0.0120395 0)
(0.087557 -0.00798357 0)
(0.0851851 -0.00580152 0)
(0.0844929 -0.00456497 0)
(0.084476 -0.00379548 0)
(0.0847378 -0.0032223 0)
(0.0853921 -0.00259753 0)
(0.087152 -0.0014406 0)
(0.0918316 0.0029171 0)
(0.0899889 0.0250859 0)
(0.0732025 0.0423142 0)
(0.0699569 0.0574007 0)
(-0.090054 0.100779 0)
(0.578526 0.325854 0)
(-0.240103 0.121832 0)
(-0.0808509 0.109246 0)
(-0.121598 0.0898823 0)
(-0.139039 0.0741046 0)
(-0.153109 0.0586774 0)
(-0.163877 0.0427988 0)
(-0.171482 0.0258555 0)
(-0.175703 0.00723906 0)
(-0.175779 -0.0135004 0)
(-0.171098 -0.0364525 0)
(-0.161538 -0.0614511 0)
(-0.147683 -0.0873783 0)
(-0.130722 -0.110315 0)
(-0.109784 -0.123225 0)
(-0.0823223 -0.124582 0)
(-0.0527299 -0.126435 0)
(-0.0336221 -0.123244 0)
(0.0160497 -0.0568264 0)
(0.0606256 -0.0929663 0)
(0.068342 -0.0791076 0)
(0.0789929 -0.0587551 0)
(0.0914966 -0.0395221 0)
(0.102849 -0.0208604 0)
(0.115595 -0.0132004 0)
(0.126733 -0.00882751 0)
(0.132321 -0.00561609 0)
(0.133293 -0.00310459 0)
(0.130755 -0.000876288 0)
(0.125279 0.0012949 0)
(0.116743 0.00367392 0)
(0.104383 0.00672319 0)
(0.0851472 0.0111436 0)
(0.0712947 0.0367953 0)
(0.0600352 0.0604844 0)
(0.0761038 0.0832533 0)
(-0.117695 0.136948 0)
(0.7057 0.383698 0)
(-0.287676 0.157035 0)
(-0.0477159 0.133814 0)
(-0.09632 0.106957 0)
(-0.107778 0.0876413 0)
(-0.116818 0.069227 0)
(-0.123615 0.0505063 0)
(-0.128282 0.030647 0)
(-0.130648 0.00877678 0)
(-0.129847 -0.0157797 0)
(-0.125352 -0.0430509 0)
(-0.116736 -0.072666 0)
(-0.10403 -0.102809 0)
(-0.0875825 -0.129068 0)
(-0.0676588 -0.145773 0)
(-0.0443417 -0.152272 0)
(-0.0204961 -0.152407 0)
(2.6666e-05 -0.14378 0)
(0.0305756 -0.11502 0)
(0.0567816 -0.109344 0)
(0.0704078 -0.0923981 0)
(0.0805821 -0.0712136 0)
(0.0906627 -0.0507541 0)
(0.100229 -0.0327141 0)
(0.109337 -0.019351 0)
(0.116349 -0.00997669 0)
(0.119756 -0.00328095 0)
(0.119933 0.0019704 0)
(0.1175 0.00650951 0)
(0.112831 0.0108499 0)
(0.105957 0.0155033 0)
(0.0968136 0.0211742 0)
(0.0849025 0.0291652 0)
(0.0733664 0.0471585 0)
(0.0628954 0.0711839 0)
(0.0944135 0.0992774 0)
(0.0165535 0.13815 0)
(0.0958195 0.18283 0)
(0.140993 0.1475 0)
(-0.22495 0.203419 0)
(0.810405 0.431996 0)
(-0.331311 0.190711 0)
(-0.0173356 0.150293 0)
(-0.0733997 0.11757 0)
(-0.0786321 0.0955688 0)
(-0.0822616 0.0750088 0)
(-0.0845226 0.0544102 0)
(-0.0855649 0.0327866 0)
(-0.085312 0.00892114 0)
(-0.0826372 -0.0183604 0)
(-0.0774715 -0.048984 0)
(-0.0688507 -0.0824586 0)
(-0.056872 -0.116451 0)
(-0.0418442 -0.146244 0)
(-0.0248809 -0.165948 0)
(-0.00652029 -0.17448 0)
(0.0118635 -0.172772 0)
(0.0277769 -0.161054 0)
(0.0459583 -0.139369 0)
(0.0624387 -0.122373 0)
(0.0731464 -0.102497 0)
(0.0808564 -0.0804235 0)
(0.0876333 -0.0590636 0)
(0.0938212 -0.0401784 0)
(0.099149 -0.0250017 0)
(0.102824 -0.0136446 0)
(0.104408 -0.00495359 0)
(0.103953 0.00223203 0)
(0.101772 0.00868527 0)
(0.0981178 0.0149231 0)
(0.0931529 0.0214744 0)
(0.0871119 0.0289788 0)
(0.0802568 0.0383618 0)
(0.0745201 0.0527817 0)
(0.0692866 0.0727977 0)
(0.0912638 0.0985498 0)
(0.0730228 0.107348 0)
(0.089456 0.0480674 0)
(0.146215 -0.0367835 0)
(-0.328838 0.105777 0)
(0.879885 0.474711 0)
(-0.36863 0.221002 0)
(0.00370517 0.155617 0)
(-0.0526966 0.121634 0)
(-0.0522516 0.0979204 0)
(-0.0510806 0.0758945 0)
(-0.0490834 0.0541188 0)
(-0.0465712 0.0316078 0)
(-0.043384 0.00683858 0)
(-0.0374181 -0.0222409 0)
(-0.0303414 -0.0553124 0)
(-0.0205654 -0.0918699 0)
(-0.00878028 -0.128799 0)
(0.00439387 -0.161126 0)
(0.0174307 -0.181796 0)
(0.0301997 -0.190175 0)
(0.0419998 -0.18724 0)
(0.0523074 -0.174467 0)
(0.0622928 -0.154125 0)
(0.0708957 -0.132458 0)
(0.0764524 -0.109414 0)
(0.0799412 -0.0858792 0)
(0.0825575 -0.063671 0)
(0.0847997 -0.0441462 0)
(0.086624 -0.028029 0)
(0.0876964 -0.0152234 0)
(0.0877969 -0.00495354 0)
(0.086778 0.00369555 0)
(0.0848365 0.0114018 0)
(0.0821247 0.0186865 0)
(0.0788271 0.0260527 0)
(0.0752318 0.0340126 0)
(0.0717469 0.0431439 0)
(0.0697403 0.0547726 0)
(0.068573 0.0693312 0)
(0.0814933 0.088569 0)
(0.084288 0.0921447 0)
(0.0890912 0.054786 0)
(0.180771 0.0250853 0)
(-0.281381 0.153828 0)
(0.927943 0.517167 0)
(-0.383159 0.234219 0)
(0.0168938 0.133058 0)
(-0.0273607 0.116735 0)
(-0.0265956 0.0950011 0)
(-0.0227987 0.0725093 0)
(-0.0176947 0.0501833 0)
(-0.0124239 0.0273233 0)
(-0.00546352 0.00192016 0)
(0.00452774 -0.0306918 0)
(0.01425 -0.0652695 0)
(0.0255378 -0.103237 0)
(0.0371517 -0.140716 0)
(0.0477917 -0.171976 0)
(0.0568482 -0.192195 0)
(0.0643109 -0.199741 0)
(0.0700159 -0.19539 0)
(0.0739689 -0.18125 0)
(0.0766821 -0.160189 0)
(0.0780684 -0.136189 0)
(0.0777398 -0.111145 0)
(0.0762652 -0.0865784 0)
(0.074468 -0.06397 0)
(0.072867 -0.0443269 0)
(0.0715953 -0.0280298 0)
(0.070515 -0.0147997 0)
(0.069432 -0.00394606 0)
(0.0680565 0.0053008 0)
(0.0665128 0.0135149 0)
(0.0647809 0.0211792 0)
(0.0629557 0.0287214 0)
(0.0612411 0.0365044 0)
(0.059961 0.0448434 0)
(0.0600031 0.0542633 0)
(0.0612228 0.0648393 0)
(0.0701043 0.078324 0)
(0.0794754 0.0823657 0)
(0.0780681 0.0625489 0)
(0.238616 0.0528426 0)
(-0.557747 0.231143 0)
(1.0113 0.506845 0)
(-0.137338 0.296374 0)
(0.0410751 0.16157 0)
(0.0405629 0.122155 0)
(0.0130437 0.0920468 0)
(0.00861773 0.0654349 0)
(0.0140378 0.0414545 0)
(0.0206615 0.0170335 0)
(0.0324815 -0.0109846 0)
(0.0439531 -0.0421165 0)
(0.0558261 -0.0768534 0)
(0.0680898 -0.114525 0)
(0.0791968 -0.150925 0)
(0.0876556 -0.180359 0)
(0.0928305 -0.198411 0)
(0.094842 -0.20365 0)
(0.0941062 -0.197094 0)
(0.0911754 -0.181131 0)
(0.0867272 -0.158784 0)
(0.0812103 -0.133364 0)
(0.0749125 -0.107307 0)
(0.0684268 -0.0824512 0)
(0.0624681 -0.0601642 0)
(0.0575463 -0.0411785 0)
(0.0538418 -0.0255848 0)
(0.051243 -0.0128953 0)
(0.0494792 -0.00234936 0)
(0.0481502 0.00673362 0)
(0.0472441 0.0148451 0)
(0.0465417 0.0224205 0)
(0.0460086 0.0297939 0)
(0.0457168 0.0371877 0)
(0.0458404 0.0447236 0)
(0.0468949 0.0525284 0)
(0.0489687 0.0604462 0)
(0.0554043 0.0693283 0)
(0.064514 0.0707127 0)
(0.0566656 0.0479092 0)
(0.293814 0.0723755 0)
(-0.769083 0.300793 0)
(0.779338 0.395774 0)
(0.000744209 0.319526 0)
(0.0933735 0.218944 0)
(0.110586 0.155211 0)
(0.0771533 0.10687 0)
(0.0597775 0.0675897 0)
(0.0581958 0.0357947 0)
(0.0623632 0.00643222 0)
(0.0738035 -0.0234265 0)
(0.0853831 -0.0550311 0)
(0.0975775 -0.0897039 0)
(0.109424 -0.126137 0)
(0.118761 -0.15984 0)
(0.123817 -0.185516 0)
(0.123999 -0.199616 0)
(0.119741 -0.201294 0)
(0.112 -0.191882 0)
(0.101855 -0.173895 0)
(0.0903481 -0.150334 0)
(0.0783221 -0.124225 0)
(0.0664649 -0.0981062 0)
(0.0555064 -0.0739103 0)
(0.046167 -0.0528968 0)
(0.0389033 -0.0355139 0)
(0.0337965 -0.0215537 0)
(0.0305897 -0.0102516 0)
(0.0288181 -0.000723023 0)
(0.0280092 0.00763797 0)
(0.0279115 0.0152653 0)
(0.0281966 0.0225221 0)
(0.0287346 0.0296353 0)
(0.0294625 0.0367159 0)
(0.0303533 0.0437647 0)
(0.0315131 0.050705 0)
(0.0327068 0.0572911 0)
(0.0349061 0.064058 0)
(0.0260743 0.0674408 0)
(0.0225417 0.0808821 0)
(0.128534 0.161256 0)
(-0.647407 0.306022 0)
(0.617278 0.220904 0)
(0.00462351 0.298147 0)
(0.11304 0.241563 0)
(0.148311 0.177575 0)
(0.130878 0.123532 0)
(0.117857 0.0778544 0)
(0.114995 0.0389016 0)
(0.117166 0.00339523 0)
(0.12354 -0.0307282 0)
(0.131775 -0.0650034 0)
(0.141459 -0.100439 0)
(0.150314 -0.135217 0)
(0.155402 -0.164999 0)
(0.154802 -0.185497 0)
(0.148203 -0.194421 0)
(0.136511 -0.191784 0)
(0.1212 -0.179299 0)
(0.10378 -0.159498 0)
(0.0856258 -0.135261 0)
(0.0678545 -0.10937 0)
(0.0514188 -0.084298 0)
(0.0371989 -0.0619284 0)
(0.0259375 -0.0433556 0)
(0.0178911 -0.0286298 0)
(0.0128071 -0.017153 0)
(0.0100173 -0.00780157 0)
(0.00879894 0.000345618 0)
(0.0087463 0.00776325 0)
(0.00938644 0.0147902 0)
(0.0104713 0.0216801 0)
(0.0118375 0.0285785 0)
(0.0133132 0.0355614 0)
(0.0146575 0.0426267 0)
(0.015603 0.0496863 0)
(0.0158509 0.0566049 0)
(0.0147963 0.0649233 0)
(-0.0116596 0.0863123 0)
(-0.00384701 0.121865 0)
(0.103776 0.179663 0)
(-0.556261 0.239405 0)
(0.570769 0.118538 0)
(-0.0202907 0.258657 0)
(0.113749 0.2299 0)
(0.165094 0.176077 0)
(0.166753 0.126206 0)
(0.164409 0.0811152 0)
(0.165393 0.0399749 0)
(0.168327 0.0016142 0)
(0.172303 -0.035414 0)
(0.177894 -0.071908 0)
(0.184065 -0.107494 0)
(0.187731 -0.139424 0)
(0.185881 -0.163877 0)
(0.177145 -0.178084 0)
(0.16197 -0.181265 0)
(0.1419 -0.1743 0)
(0.118876 -0.159192 0)
(0.094666 -0.13834 0)
(0.0708708 -0.114434 0)
(0.048751 -0.0899685 0)
(0.0294981 -0.0673181 0)
(0.014137 -0.0482418 0)
(0.00325904 -0.033473 0)
(-0.00358866 -0.0221977 0)
(-0.00721663 -0.0136283 0)
(-0.00898452 -0.00622255 0)
(-0.00951635 0.000624449 0)
(-0.00906298 0.00715941 0)
(-0.0079798 0.0135834 0)
(-0.00637089 0.0200643 0)
(-0.00438488 0.0267473 0)
(-0.00225282 0.0337927 0)
(-0.000394156 0.0413752 0)
(0.000506731 0.0496022 0)
(5.34868e-05 0.059019 0)
(-0.00582912 0.0753425 0)
(-0.0384547 0.113511 0)
(-0.030001 0.15336 0)
(0.0339738 0.183092 0)
(-0.524481 0.168931 0)
(0.628439 0.0536595 0)
(0.00943276 0.197304 0)
(0.113879 0.19698 0)
(0.175171 0.157973 0)
(0.191404 0.117725 0)
(0.198042 0.0772928 0)
(0.203366 0.0372653 0)
(0.208585 -0.00155286 0)
(0.213126 -0.0397211 0)
(0.217477 -0.0765482 0)
(0.219311 -0.109855 0)
(0.215462 -0.136516 0)
(0.20405 -0.153989 0)
(0.185166 -0.161324 0)
(0.160423 -0.159094 0)
(0.131983 -0.148693 0)
(0.1021 -0.132172 0)
(0.0725028 -0.111587 0)
(0.0449931 -0.0894453 0)
(0.0208404 -0.0679542 0)
(0.00165411 -0.0494266 0)
(-0.0115923 -0.0354496 0)
(-0.0192091 -0.0258064 0)
(-0.0234197 -0.0182676 0)
(-0.0255454 -0.0117181 0)
(-0.0264894 -0.00554702 0)
(-0.026587 0.000415528 0)
(-0.0259276 0.00623909 0)
(-0.0246425 0.0120502 0)
(-0.0227065 0.0180206 0)
(-0.0202144 0.0243747 0)
(-0.0173809 0.0314307 0)
(-0.0146746 0.0396319 0)
(-0.0130144 0.0496512 0)
(-0.0130369 0.0631594 0)
(-0.0167571 0.0874834 0)
(-0.0426905 0.13558 0)
(-0.0342975 0.184679 0)
(-0.0042061 0.175329 0)
(-0.540331 0.0698079 0)
(0.472435 0.07476 0)
(-0.132004 0.137615 0)
(0.0942548 0.133371 0)
(0.172727 0.116877 0)
(0.203812 0.0954025 0)
(0.218074 0.064416 0)
(0.228055 0.0283567 0)
(0.237164 -0.00905735 0)
(0.243608 -0.045431 0)
(0.24517 -0.0783168 0)
(0.239218 -0.105046 0)
(0.224397 -0.123604 0)
(0.201227 -0.133196 0)
(0.171612 -0.134306 0)
(0.138118 -0.128205 0)
(0.103032 -0.116159 0)
(0.0686898 -0.100027 0)
(0.0363093 -0.0813996 0)
(0.00836479 -0.0628011 0)
(-0.0142261 -0.0462851 0)
(-0.02811 -0.0352403 0)
(-0.0362941 -0.027562 0)
(-0.0406744 -0.0215833 0)
(-0.0429477 -0.0161067 0)
(-0.0440158 -0.0107236 0)
(-0.0443711 -0.00532682 0)
(-0.0441733 -4.25379e-06 0)
(-0.0433895 0.00517963 0)
(-0.0420205 0.0103072 0)
(-0.0398734 0.0155959 0)
(-0.0369421 0.0213794 0)
(-0.0333327 0.0281423 0)
(-0.029379 0.0365923 0)
(-0.0258536 0.0478995 0)
(-0.0230264 0.0643542 0)
(-0.0177257 0.0915026 0)
(-0.0222779 0.140021 0)
(-0.0164408 0.204747 0)
(0.115982 0.196641 0)
(-0.454823 0.042382 0)
(0.724062 0.134418 0)
(0.0818273 0.115235 0)
(0.149706 0.0992659 0)
(0.222329 0.0805681 0)
(0.24396 0.0700018 0)
(0.248741 0.0476925 0)
(0.255067 0.0174937 0)
(0.261231 -0.0148521 0)
(0.260324 -0.0448978 0)
(0.249897 -0.0696619 0)
(0.229704 -0.0874437 0)
(0.201308 -0.0978224 0)
(0.16707 -0.101158 0)
(0.129502 -0.0984776 0)
(0.0910952 -0.0910731 0)
(0.0532753 -0.0796215 0)
(0.0188412 -0.0658049 0)
(-0.0126592 -0.0508026 0)
(-0.0346857 -0.0394891 0)
(-0.0490848 -0.0318507 0)
(-0.0573271 -0.0269909 0)
(-0.0618519 -0.0231229 0)
(-0.0641841 -0.0192945 0)
(-0.0652669 -0.015054 0)
(-0.0655978 -0.0103949 0)
(-0.0654609 -0.00549284 0)
(-0.0649583 -0.000612628 0)
(-0.0640556 0.00403781 0)
(-0.0627418 0.00846361 0)
(-0.0606454 0.0129127 0)
(-0.0576526 0.0178129 0)
(-0.0537255 0.0237847 0)
(-0.048923 0.0317518 0)
(-0.0434367 0.0431067 0)
(-0.0367976 0.0598093 0)
(-0.0246736 0.0847922 0)
(-0.00880846 0.124416 0)
(0.00232344 0.183865 0)
(0.16428 0.183269 0)
(-0.361797 0.09933 0)
(0.191751 0.088061 0)
(0.225608 0.0998688 0)
(0.246374 0.070245 0)
(0.242451 0.0398717 0)
(0.239694 0.0120996 0)
(0.234745 -0.0129961 0)
(0.220103 -0.033504 0)
(0.196484 -0.0485778 0)
(0.166203 -0.0581997 0)
(0.131672 -0.0628754 0)
(0.0946594 -0.0629592 0)
(0.0570541 -0.0592081 0)
(0.0208338 -0.0525481 0)
(-0.014748 -0.0431906 0)
(-0.0422642 -0.0346892 0)
(-0.06277 -0.0283328 0)
(-0.0761101 -0.0249234 0)
(-0.084209 -0.0231735 0)
(-0.0888833 -0.0219389 0)
(-0.0915651 -0.0202154 0)
(-0.0930057 -0.0176625 0)
(-0.093613 -0.0142637 0)
(-0.0936407 -0.0101914 0)
(-0.0932848 -0.00572031 0)
(-0.0926544 -0.00119289 0)
(-0.0917692 0.00307269 0)
(-0.0907821 0.00694475 0)
(-0.0893032 0.0106058 0)
(-0.0871369 0.0145274 0)
(-0.0840319 0.0193838 0)
(-0.0795342 0.0260606 0)
(-0.0730126 0.0356307 0)
(-0.0634174 0.0491836 0)
(-0.0475301 0.0675857 0)
(-0.0218119 0.0924879 0)
(0.00613978 0.135228 0)
(0.183587 0.154094 0)
(-0.342248 0.158812 0)
(0.450897 0.209874 0)
(0.205925 0.178852 0)
(0.152457 0.11882 0)
(0.139491 0.0639577 0)
(0.12826 0.0256986 0)
(0.114377 0.00154592 0)
(0.0990517 -0.0131768 0)
(0.0780654 -0.0222113 0)
(0.0533712 -0.0275858 0)
(0.0260783 -0.0297091 0)
(-0.00412555 -0.0284811 0)
(-0.0338404 -0.0249292 0)
(-0.0603918 -0.0206291 0)
(-0.0826086 -0.017111 0)
(-0.0988412 -0.0158859 0)
(-0.109759 -0.0164692 0)
(-0.116667 -0.0181355 0)
(-0.12116 -0.0195874 0)
(-0.124218 -0.0201158 0)
(-0.12634 -0.0194033 0)
(-0.127748 -0.0174074 0)
(-0.128565 -0.0142346 0)
(-0.128891 -0.0101159 0)
(-0.128818 -0.0054093 0)
(-0.128408 -0.000621734 0)
(-0.12771 0.00362751 0)
(-0.127051 0.00705406 0)
(-0.126262 0.0100159 0)
(-0.125102 0.0129991 0)
(-0.123194 0.0165254 0)
(-0.11986 0.0211206 0)
(-0.114258 0.0272829 0)
(-0.105459 0.0351721 0)
(-0.0908108 0.0439398 0)
(-0.063517 0.0524801 0)
(-0.0210857 0.0679154 0)
(0.173796 0.125237 0)
(-0.444991 0.226727 0)
(0.358964 -0.41707 0)
(-0.346482 -0.512974 0)
(-0.21856 -0.0272067 0)
(-0.0934418 0.111065 0)
(-0.053952 0.0925584 0)
(-0.0315555 0.054425 0)
(-0.0266646 0.0281566 0)
(-0.0315347 0.0113754 0)
(-0.040153 0.00054582 0)
(-0.0505986 -0.00642678 0)
(-0.064276 -0.01046 0)
(-0.0798372 -0.0124007 0)
(-0.0962692 -0.0134917 0)
(-0.112169 -0.0152607 0)
(-0.126315 -0.0181778 0)
(-0.137745 -0.0215643 0)
(-0.145843 -0.0245128 0)
(-0.15105 -0.0267293 0)
(-0.154629 -0.0282426 0)
(-0.157476 -0.029048 0)
(-0.159943 -0.0291101 0)
(-0.162112 -0.0283802 0)
(-0.163975 -0.0268582 0)
(-0.165523 -0.0246031 0)
(-0.166766 -0.0217197 0)
(-0.167736 -0.018308 0)
(-0.168404 -0.014374 0)
(-0.168565 -0.00972534 0)
(-0.168017 -0.00466291 0)
(-0.166809 7.10016e-05 0)
(-0.164959 0.00462181 0)
(-0.162354 0.00931321 0)
(-0.158733 0.0144523 0)
(-0.154133 0.0202659 0)
(-0.149312 0.026716 0)
(-0.143874 0.0335886 0)
(-0.131057 0.0432945 0)
(-0.099274 0.0692112 0)
(-0.0801949 0.131807 0)
(-0.563073 0.215775 0)
(0.122441 -0.186303 0)
(-0.388726 -0.298154 0)
(-0.343744 -0.0963 0)
(-0.265337 0.0518273 0)
(-0.211645 0.0836185 0)
(-0.179549 0.0745637 0)
(-0.163338 0.0610535 0)
(-0.157389 0.0511595 0)
(-0.157452 0.0461984 0)
(-0.160677 0.045979 0)
(-0.165166 0.0496626 0)
(-0.169499 0.0560682 0)
(-0.172797 0.0637496 0)
(-0.174885 0.0709706 0)
(-0.176175 0.0758737 0)
(-0.177257 0.0763909 0)
(-0.178788 0.0711246 0)
(-0.180978 0.0643548 0)
(-0.183878 0.0579482 0)
(-0.187418 0.0525542 0)
(-0.191435 0.0484378 0)
(-0.195684 0.0457717 0)
(-0.199849 0.0446416 0)
(-0.203571 0.0449957 0)
(-0.206513 0.0465718 0)
(-0.208444 0.0488089 0)
(-0.209277 0.0507479 0)
(-0.208967 0.0509138 0)
(-0.207475 0.0489908 0)
(-0.204704 0.0466457 0)
(-0.200668 0.0442907 0)
(-0.195244 0.0420865 0)
(-0.188161 0.040225 0)
(-0.179501 0.0388748 0)
(-0.170013 0.0377693 0)
(-0.158177 0.035822 0)
(-0.13208 0.032972 0)
(-0.0667761 0.03785 0)
(0.101349 0.0792812 0)
(-0.53051 0.111047 0)
(1.14888 -0.0112157 0)
(-0.297587 -0.323745 0)
(-0.353573 -0.23344 0)
(-0.353234 -0.149078 0)
(-0.329522 -0.107822 0)
(-0.298046 -0.0994196 0)
(-0.271047 -0.101801 0)
(-0.2516 -0.107712 0)
(-0.238673 -0.115494 0)
(-0.230083 -0.124977 0)
(-0.223786 -0.136345 0)
(-0.218327 -0.149609 0)
(-0.213005 -0.164162 0)
(-0.207857 -0.178572 0)
(-0.203501 -0.190705 0)
(-0.201003 -0.198472 0)
(-0.201515 -0.200117 0)
(-0.205632 -0.198445 0)
(-0.212795 -0.194445 0)
(-0.222151 -0.188603 0)
(-0.232778 -0.181356 0)
(-0.243746 -0.173262 0)
(-0.254165 -0.164952 0)
(-0.263223 -0.156952 0)
(-0.27022 -0.149514 0)
(-0.274611 -0.142551 0)
(-0.276123 -0.135677 0)
(-0.274903 -0.128354 0)
(-0.271676 -0.120852 0)
(-0.267277 -0.113964 0)
(-0.261844 -0.10721 0)
(-0.255222 -0.100076 0)
(-0.24718 -0.0923233 0)
(-0.238138 -0.0840215 0)
(-0.229623 -0.0755927 0)
(-0.220759 -0.0675268 0)
(-0.198043 -0.0580803 0)
(-0.141642 -0.0369486 0)
(-0.123092 0.011534 0)
(-0.636329 0.0547432 0)
)
;

boundaryField
{
    floor
    {
        type            noSlip;
    }
    ceiling
    {
        type            noSlip;
    }
    sWall
    {
        type            noSlip;
    }
    nWall
    {
        type            noSlip;
    }
    sideWalls
    {
        type            empty;
    }
    glass1
    {
        type            noSlip;
    }
    glass2
    {
        type            noSlip;
    }
    sun
    {
        type            noSlip;
    }
    Table_master
    {
        type            noSlip;
    }
    Table_slave
    {
        type            noSlip;
    }
    inlet
    {
        type            fixedValue;
        value           uniform (0.5 0 0);
    }
    outlet
    {
        type            zeroGradient;
    }
}


// ************************************************************************* //
