/*--------------------------------*- C++ -*----------------------------------*\
  =========                 |
  \\      /  F ield         | OpenFOAM: The Open Source CFD Toolbox
   \\    /   O peration     | Website:  https://openfoam.org
    \\  /    A nd           | Version:  6
     \\/     M anipulation  |
\*---------------------------------------------------------------------------*/
FoamFile
{
    version     2.0;
    format      ascii;
    class       volVectorField;
    location    "3320";
    object      U;
}
// * * * * * * * * * * * * * * * * * * * * * * * * * * * * * * * * * * * * * //

dimensions      [0 1 -1 0 0 0 0];

internalField   nonuniform List<vector> 
458
(
(0.0348252 0.0885226 0)
(-0.172081 0.0265843 0)
(-0.199349 0.0191133 0)
(-0.233224 0.0130812 0)
(-0.258396 0.00641377 0)
(-0.273601 -0.00080486 0)
(-0.27673 -0.00877822 0)
(-0.265483 -0.0177782 0)
(-0.239425 -0.0274271 0)
(-0.199713 -0.036112 0)
(-0.150447 -0.0420518 0)
(-0.09783 -0.0436517 0)
(-0.0487296 -0.0390817 0)
(-0.00627085 -0.0236849 0)
(-0.010263 0.00977204 0)
(-0.0102382 0.0105132 0)
(-0.0372607 -0.0174867 0)
(-0.0145112 -0.0291031 0)
(0.0136683 -0.0251833 0)
(0.0334396 -0.0178893 0)
(0.0480561 -0.0095548 0)
(0.0568154 -0.00517621 0)
(0.0606941 -0.00363237 0)
(0.0621296 -0.00308269 0)
(0.062779 -0.00275984 0)
(0.0630889 -0.0025094 0)
(0.0630281 -0.00224144 0)
(0.0624304 -0.00179742 0)
(0.060839 -0.000838851 0)
(0.0572373 0.0010744 0)
(0.0505182 0.00317046 0)
(0.045114 0.00508616 0)
(-0.0141474 0.0219478 0)
(0.214272 0.18189 0)
(-0.162148 0.0709933 0)
(-0.162942 0.0577627 0)
(-0.198657 0.0457436 0)
(-0.224134 0.0319885 0)
(-0.24011 0.0161758 0)
(-0.244612 -0.00240986 0)
(-0.235117 -0.0239666 0)
(-0.211868 -0.04617 0)
(-0.176486 -0.0649271 0)
(-0.133356 -0.0764274 0)
(-0.0881269 -0.0781996 0)
(-0.0462601 -0.0687307 0)
(-0.0100268 -0.0460175 0)
(0.0194098 -0.0133808 0)
(0.0442425 0.00784931 0)
(0.0548474 0.0347581 0)
(-0.0118088 0.070683 0)
(0.0670399 0.043982 0)
(0.0102868 -0.0218338 0)
(0.0265177 -0.0378984 0)
(0.0407459 -0.035645 0)
(0.0531349 -0.0273416 0)
(0.0595571 -0.0120937 0)
(0.0611773 -0.00275357 0)
(0.0612271 0.00074547 0)
(0.0613918 0.00202305 0)
(0.061717 0.00272172 0)
(0.061942 0.00322156 0)
(0.0619995 0.00367487 0)
(0.0618956 0.0044071 0)
(0.0611845 0.0062049 0)
(0.057788 0.0112232 0)
(0.0490973 0.0155321 0)
(0.0476926 0.0187035 0)
(-0.0584289 0.0475493 0)
(0.379535 0.272956 0)
(-0.180118 0.113734 0)
(-0.123512 0.0941095 0)
(-0.159198 0.0724347 0)
(-0.1826 0.0495031 0)
(-0.19841 0.0236428 0)
(-0.204063 -0.00653484 0)
(-0.195374 -0.0409797 0)
(-0.173591 -0.0757811 0)
(-0.141425 -0.103649 0)
(-0.103841 -0.118954 0)
(-0.0658951 -0.119156 0)
(-0.0318229 -0.10412 0)
(-0.00227702 -0.0743983 0)
(0.0220307 -0.0400737 0)
(0.0375972 -0.0152198 0)
(0.043179 0.0131634 0)
(-0.0236607 0.0623199 0)
(0.12249 -0.00753108 0)
(0.07251 -0.0320901 0)
(0.0643121 -0.0419285 0)
(0.0672607 -0.0417567 0)
(0.0718709 -0.038044 0)
(0.0734893 -0.0282281 0)
(0.064366 -0.0183291 0)
(0.0574116 -0.013027 0)
(0.054813 -0.0100785 0)
(0.0541217 -0.00818599 0)
(0.0538875 -0.00689742 0)
(0.0539579 -0.0059025 0)
(0.0547572 -0.00475346 0)
(0.057208 -0.00139882 0)
(0.0561025 0.0149936 0)
(0.0445867 0.0258687 0)
(0.0541326 0.0332458 0)
(-0.099379 0.0727932 0)
(0.530027 0.346653 0)
(-0.216668 0.151756 0)
(-0.0801996 0.125836 0)
(-0.115538 0.0962971 0)
(-0.133417 0.0672243 0)
(-0.146929 0.0337633 0)
(-0.152515 -0.00711129 0)
(-0.14262 -0.0550542 0)
(-0.121288 -0.102309 0)
(-0.0929783 -0.13784 0)
(-0.0625314 -0.155426 0)
(-0.0335721 -0.153428 0)
(-0.00879768 -0.133438 0)
(0.0128653 -0.0979237 0)
(0.0304328 -0.0589731 0)
(0.044357 -0.0228971 0)
(0.0599554 0.0131491 0)
(0.0588233 0.0534408 0)
(0.100334 0.0615059 0)
(0.0988167 -0.0024404 0)
(0.0851519 -0.029388 0)
(0.0784683 -0.03769 0)
(0.0736168 -0.0383939 0)
(0.0670212 -0.0341076 0)
(0.0666019 -0.0208386 0)
(0.0772777 -0.0138302 0)
(0.0862407 -0.0101072 0)
(0.0916398 -0.00782431 0)
(0.0948793 -0.00591657 0)
(0.0962856 -0.00385547 0)
(0.0945174 -0.0011901 0)
(0.0882552 0.00248031 0)
(0.0757132 0.00774302 0)
(0.0597991 0.0250976 0)
(0.0440617 0.0405828 0)
(0.0629781 0.0533439 0)
(-0.131389 0.0942771 0)
(0.662681 0.40381 0)
(-0.262353 0.182678 0)
(-0.0350341 0.145258 0)
(-0.0687492 0.111319 0)
(-0.0779457 0.0792334 0)
(-0.0862933 0.0412499 0)
(-0.0890485 -0.00798758 0)
(-0.0740281 -0.0688146 0)
(-0.0534822 -0.125901 0)
(-0.0315785 -0.165074 0)
(-0.0112748 -0.181843 0)
(0.00616185 -0.175991 0)
(0.0193259 -0.151483 0)
(0.0303439 -0.114539 0)
(0.0401939 -0.0729582 0)
(0.0494383 -0.033723 0)
(0.0619369 0.000674987 0)
(0.0760393 0.0197169 0)
(0.0903283 -0.000566717 0)
(0.0896856 -0.021372 0)
(0.0826191 -0.0300333 0)
(0.0738125 -0.0325491 0)
(0.0655676 -0.031629 0)
(0.0586232 -0.0266318 0)
(0.0568418 -0.0155116 0)
(0.0603952 -0.00902637 0)
(0.0647365 -0.00637183 0)
(0.0684597 -0.00482956 0)
(0.0717023 -0.00274939 0)
(0.074209 0.000781302 0)
(0.0750584 0.00596825 0)
(0.0731644 0.0129865 0)
(0.0682552 0.0224378 0)
(0.0612082 0.0371775 0)
(0.0500561 0.053629 0)
(0.0748592 0.0727478 0)
(-0.00684649 0.10138 0)
(0.0557878 0.150674 0)
(-0.0835198 0.0748404 0)
(-0.277797 0.000487903 0)
(0.761893 0.451325 0)
(-0.308549 0.203339 0)
(0.00242977 0.143886 0)
(-0.0205839 0.116259 0)
(-0.0197895 0.0857221 0)
(-0.021499 0.0472954 0)
(-0.0143129 -0.00693713 0)
(0.0103167 -0.0859256 0)
(0.0269255 -0.146192 0)
(0.0388274 -0.182424 0)
(0.0460473 -0.194554 0)
(0.0488954 -0.185051 0)
(0.0486306 -0.15812 0)
(0.0472258 -0.119918 0)
(0.046052 -0.0779392 0)
(0.0464688 -0.0397073 0)
(0.0508209 -0.00999112 0)
(0.0599693 0.00482446 0)
(0.066246 -0.0010515 0)
(0.064993 -0.0110135 0)
(0.0586075 -0.0188059 0)
(0.0504367 -0.0229107 0)
(0.0427987 -0.0236606 0)
(0.0368226 -0.0211344 0)
(0.0342712 -0.0157703 0)
(0.0354204 -0.0122939 0)
(0.0383742 -0.0108627 0)
(0.0420302 -0.00977473 0)
(0.0460901 -0.00763863 0)
(0.0502725 -0.00338446 0)
(0.0544832 0.00368377 0)
(0.0570002 0.0131865 0)
(0.0581665 0.024944 0)
(0.0592914 0.0395782 0)
(0.0583677 0.0559998 0)
(0.0797091 0.0766953 0)
(0.0654483 0.0889839 0)
(0.0997221 0.0967315 0)
(0.117478 0.0571988 0)
(-0.136895 -0.0299281 0)
(0.815612 0.494188 0)
(-0.334124 0.187371 0)
(0.0322412 0.0938 0)
(0.0390631 0.101054 0)
(0.0459319 0.083 0)
(0.0516247 0.0393704 0)
(0.0790993 -0.0311716 0)
(0.103111 -0.103704 0)
(0.113287 -0.157016 0)
(0.112863 -0.186331 0)
(0.104583 -0.192432 0)
(0.0907911 -0.178776 0)
(0.0740953 -0.149769 0)
(0.0575018 -0.111562 0)
(0.0429721 -0.0709099 0)
(0.032617 -0.0356958 0)
(0.0281009 -0.0107569 0)
(0.0295011 0.000991155 0)
(0.0311369 -0.000280188 0)
(0.0296356 -0.00656863 0)
(0.0249841 -0.01263 0)
(0.0188647 -0.016369 0)
(0.0128394 -0.0177423 0)
(0.00803295 -0.0171042 0)
(0.00567175 -0.0151952 0)
(0.00601377 -0.0141009 0)
(0.00805287 -0.0139677 0)
(0.0110512 -0.0137419 0)
(0.0148464 -0.0123611 0)
(0.0195243 -0.0087396 0)
(0.0256931 -0.00163553 0)
(0.0333027 0.00886891 0)
(0.0400694 0.0208902 0)
(0.0478782 0.0341599 0)
(0.0558776 0.0479595 0)
(0.0754522 0.0644567 0)
(0.0882331 0.0697705 0)
(0.11967 0.0632094 0)
(0.163391 0.0513055 0)
(-0.0203526 0.095488 0)
(0.921867 0.497287 0)
(-0.0766769 0.16742 0)
(0.110609 0.0261616 0)
(0.163738 0.0227927 0)
(0.1614 0.0155466 0)
(0.162866 -0.0293634 0)
(0.19649 -0.0804105 0)
(0.211273 -0.125543 0)
(0.205361 -0.158278 0)
(0.185092 -0.173982 0)
(0.155586 -0.171674 0)
(0.121086 -0.153973 0)
(0.0852906 -0.124274 0)
(0.0523638 -0.088074 0)
(0.0244583 -0.0510593 0)
(0.00511378 -0.021929 0)
(-0.00463256 -0.00442848 0)
(-0.00655939 0.00175825 0)
(-0.00644035 0.000663176 0)
(-0.00764098 -0.00366304 0)
(-0.0109407 -0.00801298 0)
(-0.0154389 -0.011077 0)
(-0.0200734 -0.0128475 0)
(-0.0239377 -0.0136839 0)
(-0.0263199 -0.014135 0)
(-0.0272116 -0.0148862 0)
(-0.0271756 -0.0158704 0)
(-0.0265939 -0.016584 0)
(-0.0254665 -0.0164984 0)
(-0.0234871 -0.015036 0)
(-0.0198618 -0.0114654 0)
(-0.0117091 -0.00490957 0)
(-9.39397e-05 0.004459 0)
(0.0110861 0.0137603 0)
(0.0226897 0.0208655 0)
(0.0398997 0.0277364 0)
(0.05543 0.0224379 0)
(0.079569 0.00564836 0)
(0.146409 0.0479779 0)
(-0.428338 0.212666 0)
(1.06591 0.444165 0)
(0.518238 0.298301 0)
(0.529533 0.249858 0)
(0.518392 0.182905 0)
(0.469838 0.122438 0)
(0.433159 0.0601127 0)
(0.392048 -0.00742389 0)
(0.342843 -0.06698 0)
(0.289085 -0.107862 0)
(0.232746 -0.126611 0)
(0.175364 -0.125099 0)
(0.118904 -0.108912 0)
(0.0654563 -0.0822844 0)
(0.0202352 -0.0512617 0)
(-0.016103 -0.0208446 0)
(-0.0329482 -0.00607229 0)
(-0.0401262 0.000441784 0)
(-0.0416827 0.00220711 0)
(-0.0420611 0.00100808 0)
(-0.043203 -0.00163945 0)
(-0.0458309 -0.00451702 0)
(-0.0494798 -0.00704479 0)
(-0.053505 -0.00913476 0)
(-0.0573696 -0.0108634 0)
(-0.0608171 -0.0123653 0)
(-0.0640102 -0.0137469 0)
(-0.0673527 -0.0148455 0)
(-0.0712204 -0.0153018 0)
(-0.0759667 -0.0146315 0)
(-0.0820651 -0.0121814 0)
(-0.0902075 -0.00711445 0)
(-0.101118 0.00142835 0)
(-0.112752 0.0133221 0)
(-0.127984 0.028414 0)
(-0.152908 0.0467844 0)
(-0.190232 0.0673932 0)
(-0.241634 0.0862251 0)
(-0.297563 0.0999183 0)
(-0.371647 0.106912 0)
(-0.65067 0.106304 0)
(0.233924 0.0528315 0)
(0.30589 0.115962 0)
(0.321217 0.0913658 0)
(0.299643 0.0395759 0)
(0.275047 -0.0106043 0)
(0.244386 -0.0469405 0)
(0.203097 -0.0684133 0)
(0.154003 -0.0754151 0)
(0.100436 -0.0686986 0)
(0.0461624 -0.0529163 0)
(-0.00863254 -0.0295129 0)
(-0.0451355 -0.0114966 0)
(-0.0635936 -0.00313918 0)
(-0.0709243 -0.000757826 0)
(-0.0731598 -0.00028399 0)
(-0.073478 -0.000982476 0)
(-0.0737797 -0.0025837 0)
(-0.074918 -0.0046791 0)
(-0.077133 -0.00676781 0)
(-0.0803883 -0.00854759 0)
(-0.0841842 -0.0100192 0)
(-0.0882911 -0.0111408 0)
(-0.0927203 -0.0119153 0)
(-0.0976254 -0.0123094 0)
(-0.103157 -0.0121328 0)
(-0.109347 -0.0110405 0)
(-0.116066 -0.00856331 0)
(-0.122967 -0.00415729 0)
(-0.129429 0.00273874 0)
(-0.134402 0.0123365 0)
(-0.13837 0.0256174 0)
(-0.141807 0.0431791 0)
(-0.146018 0.0642221 0)
(-0.151773 0.0850512 0)
(-0.155359 0.0955472 0)
(-0.141303 0.0734012 0)
(-0.110248 -0.0250087 0)
(-0.286612 -0.213741 0)
(0.120027 0.324335 0)
(0.00839033 0.203592 0)
(0.0392635 0.118448 0)
(0.0584764 0.060433 0)
(0.0631236 0.0216228 0)
(0.0601095 -0.00478662 0)
(0.040195 -0.0199129 0)
(0.0054142 -0.0189526 0)
(-0.0366011 -0.0017162 0)
(-0.0701191 0.0128799 0)
(-0.0912304 0.020882 0)
(-0.100244 0.0232652 0)
(-0.102468 0.023393 0)
(-0.102413 0.0234456 0)
(-0.101541 0.0241596 0)
(-0.100509 0.0252862 0)
(-0.0997868 0.0264274 0)
(-0.0996594 0.0271774 0)
(-0.100184 0.0271121 0)
(-0.101326 0.0259069 0)
(-0.10312 0.0238734 0)
(-0.105496 0.0216293 0)
(-0.108388 0.01945 0)
(-0.111706 0.0174808 0)
(-0.115313 0.0158321 0)
(-0.118996 0.0146129 0)
(-0.122445 0.01396 0)
(-0.125176 0.0140305 0)
(-0.126372 0.0155215 0)
(-0.124865 0.0198897 0)
(-0.119076 0.0282962 0)
(-0.107619 0.0417407 0)
(-0.0903519 0.0602413 0)
(-0.0683172 0.0804254 0)
(-0.0434462 0.0948377 0)
(-0.00758439 0.0857779 0)
(0.146941 0.00930513 0)
(-0.20993 -0.129684 0)
(-0.422118 -0.51603 0)
(-0.637319 -0.143276 0)
(-0.449399 0.177758 0)
(-0.357935 0.0560776 0)
(-0.213901 -0.00554152 0)
(-0.145613 -0.0477904 0)
(-0.11717 -0.0705388 0)
(-0.11299 -0.0713623 0)
(-0.122349 -0.0626882 0)
(-0.134865 -0.0549769 0)
(-0.140348 -0.0505064 0)
(-0.138589 -0.0490669 0)
(-0.134127 -0.0499524 0)
(-0.128946 -0.052775 0)
(-0.124483 -0.056303 0)
(-0.121039 -0.0599466 0)
(-0.118239 -0.0635885 0)
(-0.115827 -0.0672852 0)
(-0.113758 -0.0708866 0)
(-0.112108 -0.0739032 0)
(-0.111009 -0.0756833 0)
(-0.110623 -0.0757904 0)
(-0.111052 -0.0743577 0)
(-0.112259 -0.0719863 0)
(-0.11407 -0.0689145 0)
(-0.116261 -0.0652749 0)
(-0.118549 -0.0610874 0)
(-0.120566 -0.0562783 0)
(-0.121831 -0.0506317 0)
(-0.12171 -0.0438016 0)
(-0.119186 -0.0358146 0)
(-0.112354 -0.02669 0)
(-0.0984061 -0.0158834 0)
(-0.0748446 -0.00248654 0)
(-0.0415508 0.0143642 0)
(0.00931632 0.0362843 0)
(0.061866 0.0423471 0)
(0.109598 0.0240443 0)
(0.172057 -0.015943 0)
(-0.19629 -0.0826847 0)
)
;

boundaryField
{
    floor
    {
        type            noSlip;
    }
    ceiling
    {
        type            noSlip;
    }
    sWall
    {
        type            noSlip;
    }
    nWall
    {
        type            noSlip;
    }
    sideWalls
    {
        type            empty;
    }
    glass1
    {
        type            noSlip;
    }
    glass2
    {
        type            noSlip;
    }
    sun
    {
        type            noSlip;
    }
    Table_master
    {
        type            noSlip;
    }
    Table_slave
    {
        type            noSlip;
    }
    inlet
    {
        type            fixedValue;
        value           uniform (0.46194 -0.191342 0);
    }
    outlet
    {
        type            zeroGradient;
    }
}


// ************************************************************************* //
