/*--------------------------------*- C++ -*----------------------------------*\
  =========                 |
  \\      /  F ield         | OpenFOAM: The Open Source CFD Toolbox
   \\    /   O peration     | Website:  https://openfoam.org
    \\  /    A nd           | Version:  6
     \\/     M anipulation  |
\*---------------------------------------------------------------------------*/
FoamFile
{
    version     2.0;
    format      ascii;
    class       volScalarField;
    location    "26699.9999986599105";
    object      k;
}
// * * * * * * * * * * * * * * * * * * * * * * * * * * * * * * * * * * * * * //

dimensions      [0 2 -2 0 0 0 0];

internalField   nonuniform List<scalar> 
778
(
0.00158598
0.00180128
0.00178821
0.00194681
0.00209807
0.00224031
0.00237691
0.00251239
0.00265254
0.00280565
0.00295559
0.00310159
0.00324885
0.00341106
0.00358459
0.000792516
0.00162528
0.00165134
0.00157214
0.00144422
0.00128198
0.00113004
0.000998593
0.000887029
0.000792574
0.000712858
0.000644846
0.000585857
0.000533354
0.000484629
0.00043618
0.000397908
0.000326065
0.00340708
0.0064339
0.00268776
0.00274635
0.00288807
0.00305464
0.00323494
0.00343056
0.00364354
0.00387352
0.00412517
0.00437847
0.00459385
0.0046989
0.00459327
0.00429682
0.00390577
0.00357894
0.0025383
0.0028135
0.00295511
0.00289667
0.00266322
0.0022639
0.00190464
0.00160857
0.00136906
0.00117544
0.0010168
0.000885098
0.000773889
0.000681102
0.000615116
0.000574623
0.000864678
0.000524173
0.00549098
0.0127824
0.00347831
0.00321233
0.00329767
0.0034555
0.00363681
0.00384083
0.00407087
0.00432709
0.00463473
0.00500963
0.00544942
0.00595883
0.00653022
0.00685949
0.00627735
0.00538564
0.0040378
0.00416992
0.00417325
0.00397539
0.00357729
0.00266527
0.0020149
0.0015752
0.00126893
0.00104892
0.000886663
0.000764439
0.000671711
0.000603566
0.000551394
0.000548662
0.00116652
0.000678564
0.00797389
0.0217613
0.00449181
0.00339092
0.00334166
0.00343819
0.00354948
0.0036688
0.0038088
0.00399077
0.00425825
0.00464722
0.00516968
0.00582369
0.00655369
0.00713442
0.00722854
0.00724626
0.00534132
0.00554679
0.00537461
0.00512499
0.00478667
0.004348
0.00345589
0.00285899
0.00243571
0.00210938
0.00184985
0.00163137
0.00143802
0.00125808
0.00107724
0.000800403
0.000659582
0.00142396
0.000822777
0.0108769
0.0336394
0.00621407
0.00342518
0.00315838
0.003167
0.00318953
0.0032097
0.0032518
0.00336055
0.00359391
0.00398803
0.00455198
0.00527521
0.00608558
0.0068166
0.00728174
0.00764147
0.00751268
0.00665078
0.00607104
0.00557782
0.00509856
0.00462925
0.00412316
0.00366551
0.00327463
0.00293678
0.00263038
0.00234683
0.00207828
0.00181766
0.00155435
0.00122149
0.000929766
0.00119141
0.00121692
0.00117096
0.00206829
0.0018918
0.0141756
0.0476053
0.00928639
0.00349029
0.00290863
0.00282273
0.0027643
0.00269933
0.00266391
0.00273417
0.0029803
0.00341355
0.00402258
0.00479681
0.00565247
0.00645998
0.00706633
0.0074037
0.00731931
0.00678629
0.0062126
0.0056358
0.0050737
0.00455582
0.00409132
0.00369564
0.00336291
0.00307337
0.00280624
0.00255076
0.00229812
0.00204147
0.00177342
0.00147109
0.00117752
0.0011123
0.00111182
0.00172454
0.00515026
0.0026997
0.0179933
0.0606125
0.0143644
0.00382005
0.00271531
0.00252938
0.00241167
0.00229378
0.00222071
0.00231132
0.00263018
0.00313929
0.00380206
0.00463183
0.00552872
0.00636637
0.00699944
0.00732544
0.00725118
0.00681526
0.00621355
0.00555391
0.00491156
0.00434271
0.00387253
0.00350051
0.00320675
0.00296178
0.00274114
0.00252857
0.00231273
0.00208648
0.00184488
0.0015827
0.00132603
0.00115843
0.00109248
0.00157468
0.00639662
0.00376587
0.0216425
0.0704862
0.0214425
0.00510343
0.00274294
0.00237177
0.00220994
0.00208158
0.00202587
0.00221916
0.00264979
0.0032315
0.00393856
0.00477685
0.00570197
0.006576
0.00722461
0.00751319
0.00738265
0.00689483
0.00619768
0.00542718
0.00469206
0.00406497
0.00357485
0.00321287
0.00294804
0.00274142
0.00256443
0.00239562
0.00222144
0.00203455
0.00183145
0.00161233
0.00139469
0.00122571
0.00115713
0.0021803
0.0141786
0.00653672
0.0228336
0.0694882
0.0325416
0.0110616
0.00406817
0.0025873
0.00223516
0.00210249
0.00218933
0.00251174
0.00300019
0.00360286
0.00433522
0.00521769
0.00619168
0.00709364
0.00772092
0.00792419
0.00766439
0.00702564
0.00616655
0.00525067
0.00440977
0.00372423
0.00321799
0.00287003
0.00263667
0.00247023
0.00233716
0.00221165
0.00207896
0.00193213
0.00176879
0.00159071
0.00141058
0.00127645
0.00135961
0.00439866
0.0285807
0.008554
0.0219172
0.0516257
0.0336451
0.0174374
0.00858861
0.00475846
0.00325999
0.00272882
0.00285177
0.00320948
0.0036716
0.00424742
0.00499976
0.00594682
0.00698509
0.00789754
0.00844796
0.00848617
0.00800419
0.00712533
0.00604495
0.00495905
0.00401642
0.00329465
0.00280082
0.00249109
0.00230455
0.00218664
0.00209836
0.00201299
0.0019171
0.00180513
0.00167582
0.00153155
0.00138356
0.00128919
0.00176113
0.0112695
0.0236413
0.00875161
0.0192307
0.0394291
0.0302365
0.0195673
0.0121825
0.00793777
0.00571544
0.004667
0.00435953
0.00439701
0.00465074
0.00514653
0.00594164
0.00699343
0.00810393
0.00897746
0.00935058
0.00909853
0.00827377
0.00706351
0.00571833
0.00446864
0.00346979
0.00277481
0.0023529
0.002119
0.00199482
0.00192729
0.00187738
0.00182342
0.00175557
0.00167001
0.00156667
0.00144939
0.00133207
0.00129243
0.00208503
0.0107801
0.0225013
0.00877483
0.0159461
0.0315833
0.0266501
0.0195392
0.0139759
0.0102832
0.00802566
0.0067491
0.0060459
0.00572769
0.00578104
0.00627718
0.00721989
0.0084352
0.00958595
0.0102971
0.0103161
0.00959273
0.0082854
0.00666953
0.00506595
0.00373227
0.00280101
0.00224055
0.0019601
0.00182031
0.00175165
0.00171797
0.0016905
0.00165512
0.00160511
0.00153747
0.00145392
0.00136194
0.00128112
0.00131541
0.00227881
0.00934535
0.0211428
0.00958707
0.0132647
0.0256793
0.0233562
0.0186926
0.0145849
0.0115885
0.00954311
0.00820827
0.00729789
0.00683801
0.00695859
0.00772692
0.00899512
0.0103873
0.0114255
0.0117143
0.0111027
0.00968569
0.00778396
0.00576684
0.00404034
0.00284334
0.00219863
0.00186566
0.00170307
0.00162354
0.00158386
0.00156233
0.00154064
0.00151008
0.00146655
0.00140965
0.00134377
0.00128181
0.00127129
0.00154209
0.00293038
0.00948383
0.0187398
0.0103917
0.0133555
0.0224288
0.0220677
0.0177656
0.014396
0.0118963
0.0100852
0.00876894
0.00791724
0.00777391
0.00847762
0.0098829
0.0115496
0.012896
0.0134146
0.0128355
0.0112542
0.00896179
0.00651526
0.00430768
0.0029596
0.00221757
0.00184783
0.00166468
0.00157123
0.00151962
0.00148687
0.0014612
0.00143261
0.00139581
0.00134915
0.00129596
0.00125132
0.00126869
0.00152716
0.00241195
0.00456156
0.0101172
0.0191451
0.00971085
0.0108791
0.0117686
0.0129257
0.0125537
0.0113751
0.0100751
0.00894693
0.00820259
0.00830071
0.00941639
0.011302
0.0133833
0.0149793
0.0155451
0.0148254
0.0128398
0.0101
0.00699043
0.00461265
0.00310975
0.00231963
0.00193225
0.00173928
0.00163267
0.00156531
0.00151593
0.00147378
0.00143301
0.00139037
0.0013441
0.00129535
0.0012551
0.00126105
0.00142706
0.00202933
0.00350938
0.00636811
0.0110012
0.0162555
0.00857588
0.00354036
0.00481791
0.00598781
0.00659363
0.0072731
0.00878596
0.0113027
0.0141408
0.0165713
0.0180156
0.0180986
0.016741
0.0141718
0.0105438
0.00724109
0.00476222
0.00326676
0.00250307
0.00214687
0.00197001
0.0018651
0.00178947
0.00172724
0.00167217
0.00162182
0.00157566
0.00153384
0.00150396
0.00148547
0.00148942
0.00155644
0.00179931
0.00247039
0.00399709
0.00685998
0.0113079
0.0164337
0.00797577
0.00444643
0.00628079
0.00809475
0.0110032
0.0146741
0.0181346
0.0203798
0.0214557
0.0213931
0.0201705
0.0176066
0.0140844
0.0103782
0.00706497
0.00473984
0.00341539
0.00279103
0.00252099
0.00239521
0.00232216
0.00226917
0.00222624
0.00219243
0.00217074
0.00216495
0.0021765
0.0022018
0.00223033
0.00226585
0.00232262
0.00242628
0.00266666
0.00322975
0.00446261
0.00692534
0.0113831
0.0175906
0.00928047
0.0150774
0.0245502
0.0181348
0.0143834
0.0169767
0.0206607
0.022781
0.0234821
0.0230387
0.021698
0.0196897
0.0170194
0.0137895
0.0103803
0.00736391
0.0052245
0.0040568
0.00354998
0.00336238
0.0032961
0.00326634
0.0032399
0.00320701
0.00317082
0.00314163
0.00313185
0.00315188
0.00320826
0.00330387
0.00343795
0.00360336
0.00379246
0.00404291
0.00445652
0.00514318
0.0063604
0.00870926
0.0145579
0.0179331
0.0103139
0.013807
0.0170629
0.0178223
0.0207327
0.0216619
0.0220788
0.0210846
0.0192774
0.0171664
0.014998
0.0128653
0.0108015
0.0088275
0.00705869
0.00565869
0.00476971
0.00431873
0.0041417
0.0041121
0.00415483
0.00422454
0.00429389
0.00435001
0.00439293
0.00443257
0.00448452
0.00456649
0.00469717
0.00489769
0.00519355
0.00561389
0.0061846
0.00690933
0.00777629
0.00886668
0.0103772
0.0127081
0.0173471
0.0201694
0.0110521
0.0121342
0.00891536
0.0088308
0.00936076
0.00981565
0.00926342
0.0082159
0.00706534
0.00598865
0.00503034
0.00418762
0.00346343
0.00288663
0.00249472
0.00229115
0.00221347
0.00221169
0.00224913
0.00230459
0.00236659
0.00242914
0.00248997
0.00254994
0.00261272
0.00268444
0.00277365
0.0028918
0.003054
0.00327886
0.00358542
0.00398676
0.00448426
0.00506925
0.00573608
0.00650236
0.00735647
0.00828544
0.00932421
0.0104243
0.00941258
)
;

boundaryField
{
    floor
    {
        type            kqRWallFunction;
        value           nonuniform List<scalar> 
36
(
0.00358459
0.000792516
0.00162528
0.00165134
0.00157214
0.00144422
0.00128198
0.00113004
0.000998593
0.000887029
0.000792574
0.000712858
0.000644846
0.000585857
0.000533354
0.000484629
0.00043618
0.000397908
0.000326065
0.000326065
0.000524173
0.000678564
0.000822777
0.00117096
0.00206829
0.0018918
0.00358459
0.00429682
0.00390577
0.00357894
0.000792516
0.00357894
0.0025383
0.00538564
0.0040378
0.00534132
)
;
    }
    ceiling
    {
        type            kqRWallFunction;
        value           nonuniform List<scalar> 
43
(
0.0121342
0.00891536
0.0088308
0.00936076
0.00981565
0.00926342
0.0082159
0.00706534
0.00598865
0.00503034
0.00418762
0.00346343
0.00288663
0.00249472
0.00229115
0.00221347
0.00221169
0.00224913
0.00230459
0.00236659
0.00242914
0.00248997
0.00254994
0.00261272
0.00268444
0.00277365
0.0028918
0.003054
0.00327886
0.00358542
0.00398676
0.00448426
0.00506925
0.00573608
0.00650236
0.00735647
0.00828544
0.00932421
0.0104243
0.00941258
0.0108791
0.0117686
0.00444643
)
;
    }
    sWall
    {
        type            kqRWallFunction;
        value           nonuniform List<scalar> 9(0.0219172 0.0192307 0.0159461 0.0132647 0.0133555 0.0108791 0.0150774 0.013807 0.0121342);
    }
    nWall
    {
        type            kqRWallFunction;
        value           nonuniform List<scalar> 
14
(
0.0018918
0.0026997
0.00376587
0.00875161
0.00877483
0.00958707
0.0103917
0.00971085
0.00857588
0.00797577
0.00928047
0.0103139
0.0110521
0.00941258
)
;
    }
    sideWalls
    {
        type            empty;
    }
    glass1
    {
        type            kqRWallFunction;
        value           nonuniform List<scalar> 9(0.00158598 0.00340708 0.00549098 0.00797389 0.0108769 0.0141756 0.0179933 0.0216425 0.0228336);
    }
    glass2
    {
        type            kqRWallFunction;
        value           nonuniform List<scalar> 2(0.00653672 0.008554);
    }
    sun
    {
        type            kqRWallFunction;
        value           nonuniform List<scalar> 
14
(
0.00158598
0.00180128
0.00178821
0.00194681
0.00209807
0.00224031
0.00237691
0.00251239
0.00265254
0.00280565
0.00295559
0.00310159
0.00324885
0.00341106
)
;
    }
    Table_master
    {
        type            kqRWallFunction;
        value           nonuniform List<scalar> 9(0.00266527 0.0020149 0.0015752 0.00126893 0.00104892 0.000886663 0.000764439 0.000671711 0.000603566);
    }
    Table_slave
    {
        type            kqRWallFunction;
        value           nonuniform List<scalar> 9(0.00345589 0.00285899 0.00243571 0.00210938 0.00184985 0.00163137 0.00143802 0.00125808 0.00107724);
    }
    inlet
    {
        type            turbulentIntensityKineticEnergyInlet;
        intensity       0.05;
        value           uniform 0.0009375;
    }
    outlet
    {
        type            zeroGradient;
    }
}


// ************************************************************************* //
