/*--------------------------------*- C++ -*----------------------------------*\
  =========                 |
  \\      /  F ield         | OpenFOAM: The Open Source CFD Toolbox
   \\    /   O peration     | Website:  https://openfoam.org
    \\  /    A nd           | Version:  6
     \\/     M anipulation  |
\*---------------------------------------------------------------------------*/
FoamFile
{
    version     2.0;
    format      ascii;
    class       volScalarField;
    location    "26699.9999986599105";
    object      nut;
}
// * * * * * * * * * * * * * * * * * * * * * * * * * * * * * * * * * * * * * //

dimensions      [0 2 -1 0 0 0 0];

internalField   nonuniform List<scalar> 
778
(
0.000894322
0.000953092
0.000949628
0.000990847
0.00102862
0.00106291
0.00109484
0.00112561
0.00115658
0.00118949
0.00122086
0.00125065
0.00128
0.00131156
0.00134451
0.00063219
0.000905338
0.000912567
0.000890413
0.000853422
0.000804057
0.000754905
0.000709642
0.000668828
0.000632216
0.00059958
0.000570261
0.000543552
0.000518625
0.000494368
0.000469006
0.000447957
0.000405506
0.0013108
0.00258125
0.00226511
0.00261448
0.00286807
0.00313691
0.00340505
0.0036521
0.00385089
0.00396651
0.00403441
0.00400619
0.00380619
0.00331112
0.00241815
0.00147204
0.00140345
0.00134345
0.0011314
0.00192686
0.00267038
0.00310922
0.00312947
0.00246989
0.00211235
0.00186443
0.00167631
0.00152678
0.00139931
0.00128658
0.00118164
0.00107897
0.000986829
0.000907381
0.00102231
0.000514142
0.00166406
0.0036046
0.00267233
0.00382236
0.00427122
0.00465111
0.00499609
0.00529962
0.00555662
0.00575795
0.00595296
0.00615803
0.00634634
0.00645827
0.0063836
0.00584518
0.00427542
0.00164803
0.00142698
0.0030526
0.00426023
0.00483138
0.00439404
0.00115936
0.00100803
0.000891283
0.000799956
0.000727307
0.000668691
0.000620894
0.000582019
0.000551707
0.000606544
0.000713566
0.00113048
0.000584982
0.0020053
0.00485877
0.00255739
0.00429813
0.00496269
0.00531845
0.00558007
0.00577358
0.00591789
0.00603467
0.00620066
0.00648107
0.00689022
0.00740487
0.00792256
0.00817811
0.00768096
0.00573474
0.00164123
0.00379697
0.00565219
0.00659612
0.0068295
0.00583092
0.00132016
0.00120075
0.0011083
0.00103139
0.000965861
0.000907031
0.000851586
0.000796528
0.000737059
0.000688576
0.000713884
0.00122441
0.000644154
0.00234206
0.00643367
0.00258049
0.00408623
0.00510795
0.00541147
0.00552189
0.00552644
0.00547172
0.00542308
0.00549243
0.00576476
0.00626456
0.00697252
0.00779393
0.00855114
0.00903145
0.00902562
0.00809973
0.00824101
0.00843118
0.00845899
0.00828775
0.00775771
0.00617401
0.00533309
0.00475701
0.00428926
0.00383019
0.00338536
0.00295015
0.00251562
0.00206946
0.00158955
0.00121282
0.00121234
0.000959246
0.000768454
0.0010212
0.000976746
0.00267372
0.00819709
0.00303842
0.00344607
0.00489448
0.00523122
0.00520473
0.00501772
0.00475013
0.00452934
0.00452432
0.00480975
0.00537929
0.00620011
0.00716083
0.00812137
0.00893829
0.00946071
0.00955608
0.0094608
0.00929403
0.00905696
0.00875159
0.00836248
0.00779431
0.00724675
0.00674953
0.00626907
0.00574998
0.00519557
0.0046035
0.00396891
0.00328787
0.00256534
0.00191087
0.0014347
0.00111444
0.00125422
0.00218926
0.00116684
0.00301231
0.00982861
0.0040497
0.00282342
0.00439814
0.00494856
0.00488781
0.00458486
0.00414525
0.00375867
0.00374777
0.00410857
0.00476075
0.00567861
0.00672229
0.00775581
0.0086454
0.00928283
0.00957645
0.00955454
0.00934575
0.00902888
0.00866556
0.00830276
0.00795165
0.00762932
0.00732638
0.00700306
0.00661221
0.00614176
0.005585
0.00493948
0.00420771
0.00340795
0.00262538
0.00189654
0.00139681
0.00125065
0.00223228
0.00137806
0.00330368
0.0110653
0.00552261
0.00268887
0.00348418
0.00438737
0.00451345
0.00426439
0.00374496
0.00321909
0.0033388
0.00381636
0.00454625
0.00549228
0.00657684
0.00765859
0.00858101
0.00922188
0.00951323
0.00947579
0.00920581
0.00880706
0.00837773
0.00799669
0.00770285
0.00749287
0.00732898
0.0071507
0.00690219
0.0065544
0.00609397
0.00551839
0.00483312
0.00405788
0.00325013
0.00243319
0.00169561
0.00114882
0.00322695
0.00181526
0.00339338
0.0104826
0.00683828
0.00347826
0.0023619
0.00289467
0.00338864
0.00343057
0.0030295
0.00294468
0.00325082
0.00381267
0.00460264
0.00560686
0.00674424
0.00785927
0.00877766
0.00936796
0.009575
0.00943224
0.00904033
0.008526
0.00801529
0.00760754
0.00734869
0.00722176
0.00716424
0.00709576
0.00695261
0.00670109
0.00632805
0.00583225
0.00521989
0.00450648
0.00372132
0.00283677
0.00162021
0.0014908
0.00501816
0.00207691
0.00332459
0.00845631
0.00706655
0.00477699
0.00315333
0.0024406
0.00231153
0.00242084
0.0026245
0.0029487
0.00340871
0.00404152
0.00490174
0.00598582
0.00718598
0.00831654
0.00918565
0.00966258
0.00971068
0.00938794
0.00882122
0.00816894
0.00758612
0.00718642
0.00700333
0.00698241
0.00702258
0.00702208
0.00692921
0.00672535
0.00640446
0.00596631
0.00541401
0.00475155
0.00396117
0.00280738
0.00120258
0.00292335
0.00463669
0.00210063
0.00311417
0.00722982
0.006835
0.00546879
0.00420702
0.00338567
0.00297949
0.00288756
0.00305567
0.00336528
0.00381517
0.00448376
0.00543509
0.00662516
0.00788704
0.00899268
0.00973906
0.0100129
0.00981295
0.00923826
0.00845981
0.00767999
0.00708615
0.00678775
0.00675404
0.00685339
0.00695302
0.00695502
0.00685681
0.00665946
0.00635956
0.00595249
0.00543138
0.00477685
0.00391404
0.00258701
0.00127668
0.00313269
0.0049008
0.00210282
0.00283577
0.00652085
0.00659571
0.00579127
0.00492482
0.00427293
0.00388914
0.00375164
0.00378585
0.00397245
0.00438542
0.00513316
0.00623465
0.00755407
0.00884246
0.00983436
0.0103385
0.010287
0.00973854
0.00885331
0.00786806
0.00704303
0.0065738
0.00648103
0.0065672
0.00670022
0.00678584
0.00676091
0.00664617
0.00644651
0.00615593
0.0057573
0.00522032
0.00448186
0.003437
0.00216049
0.001516
0.00320066
0.00520112
0.00219651
0.00258639
0.00583652
0.00630139
0.00591952
0.00536251
0.00489504
0.00458418
0.00443204
0.0043861
0.00454444
0.00506876
0.00604716
0.00738165
0.00881029
0.0100125
0.010724
0.0108119
0.0102911
0.00931086
0.0081133
0.00702836
0.00632984
0.00602508
0.00599809
0.00609942
0.00622266
0.00629335
0.00626596
0.00614645
0.0059422
0.0056422
0.00521006
0.00456124
0.00358508
0.00239748
0.00166804
0.00186992
0.00362844
0.0052146
0.00228823
0.00259523
0.00579398
0.0064398
0.00599267
0.0055414
0.00517204
0.00490557
0.00473202
0.00472227
0.00510737
0.0060337
0.00742184
0.00898797
0.0103659
0.0112342
0.0114084
0.0108764
0.00976895
0.0083659
0.00700378
0.00601335
0.00543559
0.00518047
0.0051424
0.00521875
0.00531733
0.00536944
0.00533729
0.00520109
0.00497482
0.00463708
0.00411647
0.00329776
0.00227487
0.00162913
0.00170475
0.00240235
0.0039813
0.00548296
0.00221614
0.0023423
0.00243616
0.00359183
0.00421837
0.00441119
0.00441294
0.00436883
0.00444697
0.00498218
0.00613175
0.00775672
0.00951488
0.0110173
0.0119377
0.0120877
0.0114387
0.0101553
0.00848783
0.00689633
0.00565038
0.00482361
0.00436658
0.00417774
0.00414019
0.00416201
0.00417692
0.00414303
0.00404405
0.0038606
0.00360921
0.00328586
0.00284797
0.00226896
0.00174172
0.00163467
0.00205847
0.0028918
0.00394278
0.00460145
0.00208197
0.000806546
0.00146236
0.00225602
0.00289568
0.00363638
0.00488959
0.00673752
0.00879788
0.0106828
0.0120959
0.0128299
0.0127487
0.0118601
0.0102697
0.00838542
0.00660908
0.00520887
0.004287
0.00379813
0.00357742
0.00348108
0.00342496
0.0033618
0.00326522
0.00312804
0.00296151
0.00278691
0.00260922
0.00243762
0.00225903
0.00206059
0.00189745
0.00195135
0.00239242
0.00318554
0.00408053
0.00460894
0.00200604
0.00149744
0.00207364
0.00302573
0.00472884
0.00704484
0.00937441
0.0111888
0.0125106
0.0133218
0.0135566
0.0131033
0.0118537
0.0100077
0.00793074
0.00603913
0.00464429
0.00384817
0.0034879
0.00334414
0.00328406
0.00324518
0.00319737
0.00312745
0.00303569
0.00293331
0.00283551
0.00275259
0.00268395
0.00262652
0.0025771
0.00253716
0.00252969
0.00262567
0.00295798
0.0036511
0.00470418
0.00548899
0.00216117
0.00275747
0.00668205
0.00613896
0.00547491
0.00695771
0.00929024
0.0112677
0.0126146
0.0133402
0.0135377
0.0132852
0.0125262
0.01121
0.00937874
0.00730889
0.00547529
0.00427504
0.00370114
0.00349137
0.00343673
0.00343492
0.00343936
0.00342859
0.00339565
0.00334415
0.00328383
0.00322551
0.00317759
0.00314574
0.00313441
0.0031471
0.00318683
0.00326231
0.00338504
0.00360572
0.00399847
0.00469736
0.00609556
0.00625179
0.00228094
0.00263873
0.005096
0.00656294
0.0083876
0.00931732
0.0102842
0.010854
0.0110012
0.0108037
0.0103142
0.00954554
0.00849005
0.00717431
0.00575918
0.0045273
0.00372743
0.00333222
0.00318761
0.00317143
0.00321405
0.00327476
0.00332823
0.0033608
0.00336919
0.00335767
0.00333354
0.00330383
0.00327546
0.00325867
0.0032702
0.00333283
0.0034702
0.00369683
0.00400959
0.00438501
0.00485919
0.00554138
0.00668848
0.0066806
0.0023616
0.00247371
0.00212038
0.0021103
0.0021727
0.00222486
0.00216137
0.00203548
0.00188755
0.00173772
0.00159253
0.00145292
0.00132124
0.0012062
0.00112141
0.00107477
0.00105648
0.00105611
0.00106501
0.00107804
0.00109239
0.00110667
0.00112039
0.00113376
0.00114764
0.00116333
0.00118263
0.00120777
0.0012415
0.00128679
0.00134599
0.00141958
0.00150554
0.00160049
0.00170211
0.00181185
0.00192656
0.00204403
0.00216793
0.00229206
0.00217884
)
;

boundaryField
{
    floor
    {
        type            nutkWallFunction;
        Cmu             0.09;
        kappa           0.41;
        E               9.8;
        value           nonuniform List<scalar> 
36
(
0.000160536
7.636e-05
0.000109517
0.000110377
0.00010774
0.000103319
9.73837e-05
9.14316e-05
8.59095e-05
8.0894e-05
7.63635e-05
7.22982e-05
6.86231e-05
6.5255e-05
6.20931e-05
5.89982e-05
5.57419e-05
5.30226e-05
4.7488e-05
4.74879e-05
6.15221e-05
7.04706e-05
7.78433e-05
9.30765e-05
0.000123219
0.000117979
0.000160536
0.000174968
0.000167224
0.000160414
7.636e-05
0.000160414
0.000136062
0.000194663
0.000169884
0.000193906
)
;
    }
    ceiling
    {
        type            nutkWallFunction;
        Cmu             0.09;
        kappa           0.41;
        E               9.8;
        value           nonuniform List<scalar> 
43
(
0.000284321
0.000246402
0.000245313
0.000252064
0.000257696
0.000250866
0.000237242
0.000221108
0.000204625
0.000188505
0.000172851
0.000157929
0.000144749
0.000134933
0.000129493
0.000127347
0.000127297
0.000128338
0.000129861
0.00013154
0.000133209
0.000134809
0.000136366
0.000137973
0.000139784
0.000142
0.000144873
0.000148714
0.000153856
0.000160559
0.00016887
0.000178551
0.0001892
0.000200537
0.000212696
0.000225347
0.000238214
0.000251689
0.000265082
0.000252798
0.000270488
0.00028052
0.000177619
)
;
    }
    sWall
    {
        type            nutkWallFunction;
        Cmu             0.09;
        kappa           0.41;
        E               9.8;
        value           nonuniform List<scalar> 9(0.000373882 0.000352054 0.000322939 0.000296608 0.000297542 0.000270578 0.000314389 0.000301887 0.000284423);
    }
    nWall
    {
        type            nutkWallFunction;
        Cmu             0.09;
        kappa           0.41;
        E               9.8;
        value           nonuniform List<scalar> 
14
(
0.000117986
0.000140179
0.000164371
0.000244404
0.000244706
0.000255
0.000264731
0.000256527
0.000242109
0.000234055
0.000251176
0.000263812
0.000272416
0.000252836
)
;
    }
    sideWalls
    {
        type            empty;
    }
    glass1
    {
        type            nutkWallFunction;
        Cmu             0.09;
        kappa           0.41;
        E               9.8;
        value           nonuniform List<scalar> 9(0.000108249 0.000156884 0.00019674 0.000234354 0.000270799 0.000306152 0.000341772 0.000372094 0.000381381);
    }
    glass2
    {
        type            nutkWallFunction;
        Cmu             0.09;
        kappa           0.41;
        E               9.8;
        value           nonuniform List<scalar> 2(0.000213355 0.000241942);
    }
    sun
    {
        type            nutkWallFunction;
        Cmu             0.09;
        kappa           0.41;
        E               9.8;
        value           nonuniform List<scalar> 
14
(
0.000108208
0.000115184
0.000114774
0.00011964
0.000124078
0.000128092
0.000131815
0.000135392
0.000138981
0.000142782
0.000146395
0.000149816
0.000153177
0.000156783
)
;
    }
    Table_master
    {
        type            nutkWallFunction;
        Cmu             0.09;
        kappa           0.41;
        E               9.8;
        value           nonuniform List<scalar> 9(0.000139291 0.000121654 0.00010784 9.68879e-05 8.80708e-05 8.08805e-05 7.49615e-05 7.01068e-05 6.6294e-05);
    }
    Table_slave
    {
        type            nutkWallFunction;
        Cmu             0.09;
        kappa           0.41;
        E               9.8;
        value           nonuniform List<scalar> 9(0.00015775 0.000144069 0.000133372 0.000124396 0.000116687 0.000109715 0.000103097 9.64741e-05 8.92602e-05);
    }
    inlet
    {
        type            calculated;
        value           uniform 0.000167705;
    }
    outlet
    {
        type            calculated;
        value           nonuniform List<scalar> 2(0.00275747 0.00668205);
    }
}


// ************************************************************************* //
