/*--------------------------------*- C++ -*----------------------------------*\
  =========                 |
  \\      /  F ield         | OpenFOAM: The Open Source CFD Toolbox
   \\    /   O peration     | Website:  https://openfoam.org
    \\  /    A nd           | Version:  6
     \\/     M anipulation  |
\*---------------------------------------------------------------------------*/
FoamFile
{
    version     2.0;
    format      ascii;
    class       surfaceScalarField;
    location    "26699.9999986599105";
    object      phi;
}
// * * * * * * * * * * * * * * * * * * * * * * * * * * * * * * * * * * * * * //

dimensions      [1 0 -1 0 0 0 0];

internalField   nonuniform List<scalar> 
1482
(
-0.00279972
0.00286376
-0.00348385
0.000684128
-0.00414444
0.000660592
-0.00475839
0.000613943
-0.00527957
0.000521177
-0.00569123
0.000411662
-0.00598216
0.000290932
-0.00613933
0.000157171
-0.00614544
6.11258e-06
-0.00597455
-0.000170896
-0.00559673
-0.000377819
-0.00498097
-0.000615757
-0.0040571
-0.000923874
-0.00257891
-0.00147819
-0.00257598
-6.31247e-05
6.79798e-05
0.000781759
-0.000844884
0.00143516
-0.000653404
0.00183532
-0.000400157
0.00205753
-0.000222207
0.00216212
-0.000104599
0.00220955
-4.7429e-05
0.00223252
-2.29684e-05
0.00224243
-9.91041e-06
0.00224342
-9.84597e-07
0.00223636
7.0591e-06
0.00221728
1.90736e-05
0.0021729
4.43833e-05
0.00206997
0.000102926
0.001853
0.000216978
0.00149494
0.00035806
0.00102259
0.000472349
0.00102903
-0.00204031
0.00507439
-0.00290834
0.00155215
-0.00369408
0.00144633
-0.00434497
0.00126484
-0.00488203
0.00105824
-0.00531054
0.000840165
-0.00562871
0.000609106
-0.00582978
0.000358238
-0.0059031
7.94337e-05
-0.00584088
-0.000233112
-0.00563733
-0.000581368
-0.00528113
-0.000971956
-0.0047711
-0.00143391
-0.0042852
-0.00196408
-0.00470084
-0.00216035
-0.00311542
-0.00157998
-0.00163331
-0.00147642
-0.00161846
0.00131859
-0.0012404
0.00166373
-0.00119003
0.00191621
-0.000905886
0.0021081
-0.000592046
0.00221606
-0.000330162
0.00222503
-0.000113571
0.00222693
-4.93305e-05
0.00222851
-2.45516e-05
0.00222948
-1.08821e-05
0.00222953
-1.02592e-06
0.00222819
8.39442e-06
0.002224
2.32679e-05
0.00221134
5.70394e-05
0.00214933
0.000164936
0.00189938
0.000466928
0.00146927
0.000788167
0.000904775
0.00103685
0.00195068
-0.00148818
0.00682049
-0.00235895
0.00242292
-0.0031288
0.00221618
-0.00371288
0.00184892
-0.00418335
0.00152871
-0.00455454
0.00121136
-0.00482828
0.000882844
-0.00500134
0.0005313
-0.00506736
0.000145446
-0.00501727
-0.000283195
-0.00484036
-0.000758278
-0.00452918
-0.00128314
-0.0041145
-0.00184858
-0.00371696
-0.00236163
-0.00329654
-0.00258076
-0.00236552
-0.002511
-0.0012723
-0.00256963
-0.00287793
0.00115129
-0.00237724
0.00165524
-0.00169397
0.00195405
-0.0012047
0.00214747
-0.000785463
0.00217884
-0.000361535
0.00206542
0.00201625
0.00199185
0.00198112
0.00198025
0.0019888
0.00201222
0.00206941
0.0022345
0.00187591
0.000825516
0.00142732
0.00123676
0.000806862
0.0016573
0.00278357
-0.00110597
0.00825767
-0.00192775
0.00324469
-0.00256962
0.00285805
-0.00302979
0.00230909
-0.00339714
0.00189605
-0.0036857
0.00149993
-0.00389849
0.00109563
-0.00403365
0.000666462
-0.00408368
0.000195484
-0.00403543
-0.00033145
-0.0038766
-0.000917103
-0.00360305
-0.00155669
-0.00323731
-0.00221433
-0.00281517
-0.00278376
-0.00227559
-0.00312035
-0.00155584
-0.00323075
-0.000867491
-0.00325798
-0.000686663
-0.00305876
0.0014496
-0.00212081
0.00137946
-0.0023071
0.0016942
-0.0020087
0.00200636
-0.00151686
0.00227236
-0.00105146
0.00254768
-0.000636854
0.00286281
-0.000315277
0.003031
-0.00016835
0.00309692
-6.60682e-05
0.00308107
1.56917e-05
0.00299219
8.87297e-05
0.00283113
0.000160902
0.00258993
0.000241051
0.00224549
0.000344278
0.00174042
0.00050492
0.00160342
0.000962511
0.00127531
0.00156488
0.000747801
0.00218481
0.00356567
-0.000803682
0.00945454
-0.00157969
0.0040207
-0.00204812
0.00332648
-0.00236363
0.0026246
-0.00260782
0.00214024
-0.00279317
0.00168528
-0.00292469
0.00122715
-0.00300308
0.00074486
-0.0030218
0.000214204
-0.00296423
-0.000389023
-0.00281709
-0.00106424
-0.00257338
-0.00180041
-0.00223958
-0.00254812
-0.00182284
-0.00320051
-0.00131724
-0.00362594
-0.000740491
-0.0038075
-0.000208999
-0.00378948
0.0002683
-0.00353606
0.00112883
-0.00298135
0.00149367
-0.00267194
0.00175149
-0.00226652
0.00200324
-0.00176861
0.00223273
-0.00128095
0.00244693
-0.000851056
0.00264882
-0.00051716
0.00276018
-0.00027971
0.00279792
-0.000103812
0.00277366
3.99529e-05
0.00269365
0.000168738
0.00256024
0.00029431
0.00237212
0.000429172
0.00212686
0.000589538
0.00183264
0.000799138
0.00162698
0.00116818
0.00148638
0.00170547
0.00130934
0.00236186
0.00230386
0.00257114
0.0013447
0.000994064
0.00190834
-0.000535123
0.00202668
-0.000575783
0.0104767
-0.00132456
0.00476947
-0.00158387
0.00358579
-0.00174956
0.00279029
-0.00186337
0.00225405
-0.00193473
0.00175665
-0.00197011
0.00126252
-0.00197377
0.000748526
-0.00194251
0.00018294
-0.00185456
-0.000476972
-0.00170004
-0.00121875
-0.00146889
-0.00203156
-0.00116398
-0.00285303
-0.000791184
-0.00357331
-0.000370953
-0.00404618
6.96668e-05
-0.00424813
0.000475
-0.00419481
0.000849266
-0.00391033
0.00129958
-0.00343166
0.00159737
-0.00296974
0.00179957
-0.00246873
0.00197024
-0.00193928
0.00212157
-0.00143227
0.00225624
-0.000985729
0.00236194
-0.000622853
0.00242151
-0.000339284
0.00243437
-0.000116666
0.00240552
6.87942e-05
0.00233959
0.000234672
0.00224016
0.000393741
0.00211109
0.000558242
0.00195932
0.000741313
0.0017994
0.000959052
0.00170811
0.00125946
0.0017659
0.00164769
0.0019805
0.00214725
0.00223103
0.00232061
0.00175215
0.00147294
0.000821332
0.000395698
0.00294516
-0.000543487
0.0115124
-0.00124355
0.00546953
-0.00119145
0.0035337
-0.0011995
0.00279834
-0.00119167
0.00224621
-0.0011581
0.00172309
-0.00110097
0.00120539
-0.001026
0.000673559
-0.000927668
8.46061e-05
-0.000778865
-0.000625775
-0.000589617
-0.001408
-0.000349221
-0.00227196
-6.47989e-05
-0.00313746
0.000240735
-0.00387884
0.000551344
-0.00435679
0.000846939
-0.00454373
0.00111009
-0.00445796
0.00134322
-0.00414346
0.00157425
-0.0036627
0.00173285
-0.00312834
0.00183162
-0.00256749
0.00190077
-0.00200843
0.00195618
-0.00148769
0.00200311
-0.00103266
0.00203635
-0.000656092
0.00205008
-0.000353014
0.00204068
-0.000107269
0.00200866
0.000100816
0.0019568
0.000286531
0.00188855
0.000461996
0.00180873
0.00063806
0.00172554
0.000824504
0.00165387
0.00103072
0.00163742
0.00127591
0.00172277
0.00156235
0.0019352
0.00193481
0.00220003
0.00205578
0.00223151
0.00144146
0.00163835
0.000988855
0.00468582
-0.000483747
0.0125316
-0.00105148
0.00603727
-0.000696981
0.0031792
-0.000635776
0.00273713
-0.000567174
0.00217761
-0.000462373
0.00161828
-0.000333343
0.00107636
-0.000182215
0.00052243
6.86197e-06
-0.000104471
0.00022482
-0.000843734
0.000464602
-0.00164778
0.000722731
-0.00253009
0.000980409
-0.00339514
0.00120984
-0.00410827
0.00141006
-0.00455701
0.00157194
-0.0047056
0.00169006
-0.00457609
0.0017691
-0.0042225
0.00182149
-0.00371509
0.00183054
-0.0031374
0.00180472
-0.00254167
0.00176324
-0.00196696
0.00172122
-0.00144567
0.00168629
-0.000997727
0.00165854
-0.000628339
0.00163404
-0.000328516
0.00160783
-8.1056e-05
0.00157741
0.000131237
0.00154264
0.000321299
0.00150441
0.000500228
0.00146529
0.000677175
0.00143078
0.000859014
0.00141102
0.00105049
0.0014291
0.00125783
0.00151476
0.00147668
0.0017246
0.00172497
0.00203517
0.00174521
0.00221633
0.00126031
0.00175998
0.00144519
0.00681077
0.00297928
0.0101395
0.00202379
0.00699275
0.000870116
0.00433288
0.000371662
0.00323559
0.000214888
0.00233438
0.000271399
0.00156177
0.000425308
0.000922448
0.000639079
0.00030866
0.000898192
-0.000363584
0.00116298
-0.00110852
0.00144162
-0.00192643
0.00170913
-0.00279759
0.00193603
-0.00362204
0.00209787
-0.00427011
0.00218863
-0.00464777
0.00221077
-0.00472774
0.002173
-0.00453833
0.00208894
-0.00413844
0.00197382
-0.00359998
0.00183337
-0.00299695
0.00167996
-0.00238826
0.00153068
-0.00181768
0.00140042
-0.00131541
0.00129766
-0.000894972
0.0012239
-0.000554579
0.00117445
-0.000279067
0.00114199
-4.85962e-05
0.00112094
0.000152289
0.00110737
0.000334867
0.00109853
0.000509069
0.00109364
0.000682065
0.00109411
0.000858548
0.0011037
0.0010409
0.00113168
0.00122985
0.00119288
0.00141547
0.00133903
0.00157883
0.00162275
0.00146149
0.00173491
0.00114816
0.000420945
0.00275913
0.00761376
0.00403325
0.00624651
0.00366973
0.00735626
0.0025438
0.00545882
0.00189019
0.0038892
0.00153358
0.002691
0.00138877
0.00170658
0.00142259
0.000888629
0.00159695
0.000134304
0.0018489
-0.000615535
0.00212599
-0.00138562
0.0024059
-0.00220633
0.00265138
-0.00304307
0.0028207
-0.00379135
0.0028867
-0.00433611
0.00284597
-0.00460704
0.00271225
-0.00459401
0.00250773
-0.00433381
0.00225667
-0.00388739
0.00198184
-0.00332514
0.00170037
-0.00271549
0.00142963
-0.00211752
0.00118767
-0.00157572
0.000989585
-0.00111732
0.000842194
-0.000747581
0.000744895
-0.000457281
0.0006891
-0.000223271
0.000663852
-2.33483e-05
0.000659975
0.000156166
0.000670032
0.00032481
0.000688666
0.000490435
0.000712636
0.000658096
0.000739442
0.000831742
0.000765379
0.00101496
0.000782554
0.00121268
0.000766158
0.00143187
0.000637899
0.00170708
4.88283e-06
0.00209454
-0.0019652
0.00311852
-0.00339581
0.00418975
0.00432089
0.00241014
0.0040009
0.00330553
0.00646087
0.00324938
0.00551498
0.0030385
0.00410007
0.00284758
0.00288193
0.00272446
0.0018297
0.00271065
0.000902436
0.00279964
4.53153e-05
0.00296152
-0.000777416
0.00317213
-0.00159622
0.00338983
-0.00242402
0.00355464
-0.00320788
0.00361167
-0.00384838
0.00353414
-0.00425856
0.00332739
-0.00440029
0.00301753
-0.00428415
0.00263889
-0.00395516
0.00222479
-0.00347329
0.00180476
-0.00290512
0.00140226
-0.002313
0.00103897
-0.00175423
0.000734562
-0.00127131
0.000503576
-0.000886332
0.00034573
-0.000589735
0.000253161
-0.000364712
0.000209824
-0.000179934
0.000201459
-1.49836e-05
0.000217054
0.000140571
0.000248413
0.000293452
0.000290217
0.000448631
0.00033887
0.000609443
0.000390278
0.000780334
0.000437862
0.000967377
0.000467841
0.0011827
0.000444952
0.00145476
0.000294555
0.00185748
-0.000173915
0.00256311
-0.00114894
0.00409405
-0.00162069
0.0046618
0.00281444
0.00145611
0.00273907
0.00274726
0.00516972
0.00343154
0.0048307
0.00371811
0.00381351
0.00381717
0.00278287
0.00384581
0.00180107
0.00388233
0.000865917
0.00395161
-2.39637e-05
0.00406142
-0.000887227
0.00420129
-0.00173609
0.00432012
-0.00254284
0.00434724
-0.00323499
0.00423096
-0.0037321
0.00395899
-0.00398658
0.00355379
-0.00399508
0.00305517
-0.00378552
0.00250693
-0.00340692
0.00194763
-0.00291399
0.00141119
-0.00236868
0.000923719
-0.00182553
0.000512226
-0.00134274
0.000195292
-0.00095438
-1.98086e-05
-0.000671232
-0.000147738
-0.000461806
-0.000212251
-0.0003002
-0.000234335
-0.000157851
-0.00022654
-2.27793e-05
-0.000197029
0.000111061
-0.000151349
0.000247773
-9.31591e-05
0.000390441
-2.50905e-05
0.000541375
5.01245e-05
0.00070512
0.000128461
0.000889041
0.000203076
0.00110808
0.000253856
0.00140397
0.000227589
0.0018837
0.000148618
0.002642
0.000299551
0.00394339
0.000358392
0.00460323
0.00329459
0.002167
0.000798042
0.00293832
0.0043984
0.00359058
0.00417844
0.00416243
0.00324166
0.0044915
0.0024538
0.00466689
0.00162568
0.00478437
0.000748443
0.00488908
-0.000128676
0.00499484
-0.000992987
0.00507223
-0.00181349
0.0050561
-0.00252671
0.00488636
-0.00306524
0.00454042
-0.00338615
0.00403723
-0.00348338
0.00342183
-0.00337966
0.00274507
-0.00310875
0.0020553
-0.00271714
0.00139014
-0.00224883
0.000787955
-0.00176649
0.000273575
-0.00131115
-0.000115382
-0.00095378
-0.000373048
-0.000696714
-0.000524782
-0.0005195
-0.000605784
-0.000380806
-0.00064328
-0.000262705
-0.000649466
-0.000151665
-0.000631244
-4.10008e-05
-0.000593271
7.30879e-05
-0.000538812
0.000193313
-0.00047062
0.000322251
-0.00039128
0.000462036
-0.000302383
0.000616224
-0.000204355
0.000791013
-9.77644e-05
0.00100149
-1.40092e-06
0.00130758
4.66003e-05
0.00183555
0.000176163
0.00251209
0.000817193
0.00330216
0.00127664
0.00414368
0.00469939
-0.00157918
0.00262231
0.00111564
0.00170358
0.00334812
0.00194597
0.00435196
0.00223782
0.00485748
0.00194828
0.00517345
0.00130971
0.00540204
0.000519846
0.00557917
-0.000305812
0.00567703
-0.00109086
0.00563431
-0.00177078
0.00540045
-0.00229285
0.00496375
-0.00262853
0.0043522
-0.00277458
0.00361901
-0.00275018
0.00282458
-0.00258522
0.00201903
-0.0023032
0.00125011
-0.00194821
0.000547939
-0.00154666
-4.17834e-05
-0.00117677
-0.000477139
-0.000875796
-0.00075428
-0.000676641
-0.000917967
-0.000533032
-0.00101355
-0.000423925
-0.00106407
-0.000330292
-0.00108341
-0.000243366
-0.00107774
-0.000157338
-0.00105062
-6.8114e-05
-0.00100527
2.77372e-05
-0.000944372
0.000132415
-0.000870834
0.000248714
-0.000789019
0.000380221
-0.000703974
0.000531181
-0.000622771
0.000709817
-0.00055949
0.00093822
-0.000539506
0.00128756
-0.000552672
0.0018485
-0.000442364
0.00240124
0.000260842
0.00259825
0.000715105
0.00368878
0.00555518
0.00288401
0.00457241
0.00487155
0.00164682
0.00535874
0.00175063
0.00559661
0.0017104
0.00582873
0.00107758
0.00601514
0.000333417
0.00607931
-0.000370014
0.00595094
-0.000962524
0.00559714
-0.00141701
0.00503077
-0.00172649
0.00429904
-0.0018968
0.00346078
-0.00193631
0.00257547
-0.00186485
0.0016984
-0.00170814
0.000862881
-0.00146767
0.000109765
-0.00119509
-0.000504686
-0.000932203
-0.00094131
-0.000740138
-0.00121652
-0.000600587
-0.00138867
-0.000504498
-0.0014937
-0.000428018
-0.00155704
-0.000360599
-0.00159016
-0.000297187
-0.00159819
-0.000235347
-0.00158319
-0.000172336
-0.00154685
-0.000104452
-0.00149246
-2.66378e-05
-0.00142379
6.37516e-05
-0.00134487
0.000169791
-0.00126307
0.000298424
-0.00119016
0.000458273
-0.00114497
0.000664645
-0.00115597
0.000949303
-0.00124583
0.00137757
-0.001415
0.00201777
-0.00176102
0.0027471
-0.0023766
0.00321337
-0.00231872
0.00363032
0.00339364
0.00793704
0.00535859
0.00581915
0.00386853
0.00557088
0.00195868
0.00564089
0.00100753
0.00560288
0.000371354
0.00535678
-0.000123986
0.00489109
-0.000496888
0.00424635
-0.000772285
0.00347675
-0.000956888
0.00263609
-0.00105612
0.00176701
-0.00106721
0.000908352
-0.00100617
9.56905e-05
-0.000895464
-0.000613851
-0.000758115
-0.00116619
-0.000642734
-0.0015528
-0.000545583
-0.00181316
-0.000479771
-0.0019825
-0.000431264
-0.00209747
-0.000389558
-0.00217724
-0.000348294
-0.00223074
-0.000307136
-0.00226122
-0.000266735
-0.00226961
-0.000226969
-0.00225563
-0.000186305
-0.00221837
-0.000141682
-0.00215683
-8.814e-05
-0.00207497
-1.80831e-05
-0.00197882
7.36422e-05
-0.00187415
0.000193739
-0.00177261
0.000356713
-0.00169157
0.00058359
-0.00164915
0.000906974
-0.00164991
0.00137859
-0.00168513
0.00205341
-0.00190613
0.00296854
-0.00274336
0.00405096
-0.00300936
0.00389662
0.000557654
0.00412075
0.00148439
0.00452072
0.00346855
0.00374482
0.00273455
0.00323722
0.00151505
0.00288833
0.000720161
0.00251975
0.000244535
0.00207066
-4.78176e-05
0.0015282
-0.000229823
0.000912672
-0.00034134
0.000243069
-0.000386492
-0.000439768
-0.000384353
-0.00107611
-0.000369803
-0.00161655
-0.000354985
-0.00203318
-0.000341457
-0.00233759
-0.0003383
-0.00254859
-0.00033458
-0.00270167
-0.000326715
-0.00282126
-0.000311719
-0.00291966
-0.000291237
-0.00299994
-0.000268093
-0.00306215
-0.000244999
-0.00310551
-0.00022341
-0.00312881
-0.00020367
-0.00312973
-0.000185337
-0.00310427
-0.000167058
-0.0030467
-0.000145612
-0.00295044
-0.000114263
-0.00281605
-6.07208e-05
-0.00265376
3.14186e-05
-0.00247434
0.000177193
-0.00228549
0.000394628
-0.00208545
0.000706855
-0.00184362
0.00113685
-0.00150118
0.00171129
-0.00098479
0.00245266
-0.000255762
0.00332238
0.000419224
0.00322209
0.0011542
-0.00259038
-0.00674682
-0.00740224
-0.00745343
-0.00374678
-0.00217108
-0.00166713
0.00138886
-0.00075404
0.00182139
-0.000556766
0.00131771
-0.000638133
0.000801479
-0.00082595
0.000432324
-0.001068
0.000194215
-0.00135638
5.8549e-05
-0.00169474
-2.96445e-06
-0.00205914
-2.20651e-05
-0.00241669
-2.67597e-05
-0.00274205
-4.43835e-05
-0.00300463
-9.23599e-05
-0.00319314
-0.000152902
-0.00332985
-0.000201582
-0.00344219
-0.000222268
-0.00354948
-0.000219507
-0.00365695
-0.000204355
-0.00376221
-0.000186099
-0.0038602
-0.000170219
-0.00394606
-0.000159218
-0.00401589
-0.000153609
-0.00406634
-0.000153178
-0.00409344
-0.000158137
-0.00409112
-0.000169218
-0.00405066
-0.000185894
-0.00396163
-0.000203115
-0.00381386
-0.000208364
-0.00360235
-0.000180056
-0.00333633
-8.89273e-05
-0.00303131
8.93871e-05
-0.00268189
0.000357178
-0.00223253
0.000687256
-0.00157415
0.00105284
-0.000568113
0.00144676
0.000734464
0.00202004
0.00133776
0.00261911
0.00267268
-0.00733701
0.00104358
-0.00810928
-0.0066812
-0.0071666
-0.00311382
-0.00564863
-0.000129176
-0.00455584
0.000728541
-0.0039636
0.000725402
-0.00370366
0.000541498
-0.00363632
0.00036496
-0.00367799
0.000235879
-0.00377237
0.000152947
-0.00387676
0.000101467
-0.00396233
6.35647e-05
-0.00401875
2.97293e-05
-0.00405582
-7.24165e-06
-0.00409326
-5.48568e-05
-0.00414449
-0.000101659
-0.00421439
-0.00013172
-0.00429761
-0.000139137
-0.00438631
-0.000130937
-0.00447388
-0.000116938
-0.00455587
-0.000104253
-0.00462953
-9.66753e-05
-0.00469316
-9.56583e-05
-0.00474552
-0.000101243
-0.00478538
-0.000113222
-0.00481102
-0.000132328
-0.00481967
-0.000160338
-0.00480718
-0.000198089
-0.00476822
-0.000241772
-0.00469633
-0.000279986
-0.00458188
-0.000294324
-0.00440628
-0.000264519
-0.00414393
-0.000173182
-0.0037795
-7.67265e-06
-0.00329754
0.000204828
-0.00262284
0.000377703
-0.00154265
0.000366273
0.000267573
0.000209721
0.00135713
0.00152963
0.00421493
0.00158519
-0.0050315
-0.0080823
-0.00815215
-0.00736929
-0.00659724
-0.00601567
-0.0056153
-0.005347
-0.0051633
-0.00503178
-0.00493808
-0.00487766
-0.00485355
-0.00487668
-0.00494653
-0.00504651
-0.00515401
-0.00525334
-0.00533866
-0.00541126
-0.0054763
-0.00554041
-0.00561033
-0.00569265
-0.00579471
-0.00592567
-0.00609553
-0.00631045
-0.00656511
-0.00683565
-0.00707781
-0.00722981
-0.00721723
-0.00699287
-0.00659622
-0.0062116
-0.00598423
-0.00443769
)
;

boundaryField
{
    floor
    {
        type            calculated;
        value           nonuniform List<scalar> 
36
(
0
0
0
0
0
0
0
0
0
0
0
0
0
0
0
0
0
0
0
-6.43914e-06
-1.68832e-05
-2.6027e-05
-3.42954e-05
-3.48967e-05
-2.85225e-05
-2.85063e-05
-2.92056e-06
-5.44238e-06
-5.68874e-06
-5.90879e-06
-4.85464e-06
-8.93996e-06
-1.02089e-05
-1.28327e-05
-1.44556e-05
-1.54452e-05
)
;
    }
    ceiling
    {
        type            calculated;
        value           nonuniform List<scalar> 
43
(
-5.77908e-05
-6.45609e-05
-6.3105e-05
-5.9418e-05
-5.44179e-05
-4.67249e-05
-4.01356e-05
-3.54344e-05
-3.24109e-05
-3.06965e-05
-2.99807e-05
-3.00368e-05
-3.06008e-05
-3.12792e-05
-3.16916e-05
-3.18218e-05
-3.17975e-05
-3.17502e-05
-3.17353e-05
-3.17488e-05
-3.17569e-05
-3.17132e-05
-3.15678e-05
-3.12723e-05
-3.07844e-05
-3.00724e-05
-2.912e-05
-2.79341e-05
-2.65583e-05
-2.50858e-05
-2.36504e-05
-2.2384e-05
-2.13622e-05
-2.05783e-05
-1.99484e-05
-1.93335e-05
-1.86238e-05
-1.77966e-05
-1.69425e-05
-1.67639e-05
1.93354e-05
1.51843e-05
-0.000246551
)
;
    }
    sWall
    {
        type            calculated;
        value           nonuniform List<scalar> 9(-0.000140238 -0.000164531 -0.000194267 -0.000225973 -0.000245097 -0.000281037 -0.000423406 -0.000453425 -0.000483818);
    }
    nWall
    {
        type            calculated;
        value           nonuniform List<scalar> 
14
(
-8.98387e-05
-9.71566e-05
-0.000102316
-0.000103036
-0.000114262
-0.000121644
-0.000128404
-0.000141297
-0.000157653
-0.000173183
-0.00017681
-0.000180494
-0.000185063
-0.000205943
)
;
    }
    sideWalls
    {
        type            empty;
        value           nonuniform 0();
    }
    glass1
    {
        type            calculated;
        value           nonuniform List<scalar> 9(-6.40341e-05 -0.000170321 -0.000257922 -0.000331205 -0.000393188 -0.000446391 -0.0004922 -0.00053548 -0.000587165);
    }
    glass2
    {
        type            calculated;
        value           nonuniform List<scalar> 2(-0.000364985 -0.000382126);
    }
    sun
    {
        type            calculated;
        value           uniform 0;
    }
    Table_master
    {
        type            calculated;
        value           nonuniform List<scalar> 9(-1.53991e-07 -1.54108e-07 -1.5414e-07 -1.5416e-07 -1.54173e-07 -1.54179e-07 -1.54177e-07 -1.54163e-07 -1.54109e-07);
    }
    Table_slave
    {
        type            calculated;
        value           nonuniform List<scalar> 9(1.53661e-07 1.53717e-07 1.53716e-07 1.53733e-07 1.53754e-07 1.53797e-07 1.53864e-07 1.53957e-07 1.54085e-07);
    }
    inlet
    {
        type            calculated;
        value           uniform -0.0116488;
    }
    outlet
    {
        type            calculated;
        value           nonuniform List<scalar> 2(0.00976061 0.0122653);
    }
}


// ************************************************************************* //
