/*--------------------------------*- C++ -*----------------------------------*\
  =========                 |
  \\      /  F ield         | OpenFOAM: The Open Source CFD Toolbox
   \\    /   O peration     | Website:  https://openfoam.org
    \\  /    A nd           | Version:  6
     \\/     M anipulation  |
\*---------------------------------------------------------------------------*/
FoamFile
{
    version     2.0;
    format      ascii;
    class       volScalarField;
    location    "40699.9999993045567";
    object      nut;
}
// * * * * * * * * * * * * * * * * * * * * * * * * * * * * * * * * * * * * * //

dimensions      [0 2 -1 0 0 0 0];

internalField   nonuniform List<scalar> 
778
(
0.000894329
0.000953068
0.000949562
0.000990744
0.00102849
0.00106276
0.00109468
0.00112545
0.00115644
0.00118938
0.00122081
0.00125068
0.00128011
0.00131176
0.00134477
0.000632267
0.000905594
0.000912964
0.000890913
0.00085396
0.000804527
0.000755256
0.000709891
0.000669023
0.000632396
0.000599761
0.000570444
0.000543734
0.000518798
0.000494528
0.000469149
0.000448059
0.00040557
0.00131081
0.00258118
0.00226509
0.00261445
0.00286787
0.00313651
0.00340444
0.00365136
0.00385014
0.00396595
0.00403406
0.00400615
0.0038065
0.00331163
0.00241863
0.00147245
0.00140384
0.00134377
0.00113104
0.00192681
0.00267115
0.00311106
0.00313184
0.00247114
0.00211346
0.00186552
0.00167724
0.00152743
0.00139973
0.00128689
0.00118191
0.00107921
0.000987047
0.000907589
0.00102195
0.000514197
0.00166409
0.0036045
0.00267221
0.00382243
0.00427113
0.00465073
0.00499542
0.00529876
0.00555578
0.00575742
0.00595276
0.0061584
0.00634749
0.00646016
0.00638583
0.00584711
0.00427632
0.00164825
0.0014267
0.00305156
0.00425925
0.00483152
0.00439502
0.00115982
0.00100861
0.000891889
0.000800517
0.000727782
0.000669069
0.000621187
0.000582253
0.000551905
0.000606676
0.000713566
0.00112921
0.000584977
0.00200534
0.00485863
0.00255721
0.00429816
0.0049627
0.0053182
0.00557952
0.00577281
0.00591704
0.00603401
0.00620023
0.00648118
0.00689123
0.00740684
0.00792506
0.00818026
0.00768133
0.00573068
0.00164131
0.00379965
0.00565211
0.00659437
0.00682815
0.00583067
0.00132026
0.00120099
0.00110867
0.00103186
0.000966367
0.000907535
0.000852064
0.000796982
0.000737513
0.000688941
0.000713886
0.00122164
0.000644204
0.00234211
0.00643345
0.00258032
0.00408609
0.00510798
0.00541137
0.0055216
0.00552599
0.00547118
0.00542263
0.00549215
0.00576508
0.00626602
0.00697532
0.00779761
0.00855479
0.00903463
0.00902818
0.00810185
0.00824246
0.00843071
0.00845741
0.00828639
0.00775743
0.00617467
0.00533447
0.00475886
0.00429134
0.00383246
0.00338781
0.00295272
0.00251814
0.00207163
0.00159146
0.00121476
0.00121206
0.000959519
0.000767762
0.00100502
0.000968242
0.00267377
0.00819676
0.00303823
0.00344582
0.0048944
0.00523122
0.00520472
0.00501774
0.00475019
0.0045294
0.00452446
0.0048105
0.00538151
0.00620418
0.00716638
0.00812697
0.00894391
0.00946535
0.00955953
0.00946262
0.00929408
0.00905591
0.0087504
0.00836193
0.00779471
0.00724799
0.00675144
0.00627155
0.00575313
0.00519935
0.00460772
0.0039732
0.00329177
0.00256893
0.00191536
0.00143837
0.00111689
0.00124511
0.00215267
0.00116021
0.00301234
0.00982825
0.00404933
0.00282327
0.00439782
0.00494849
0.004888
0.00458533
0.00414594
0.00375917
0.00374793
0.00410911
0.00476293
0.00568284
0.00672869
0.00776312
0.00865261
0.00928912
0.00958132
0.00955758
0.00934692
0.00902867
0.00866474
0.00830201
0.00795128
0.00762935
0.00732688
0.00700417
0.00661431
0.00614493
0.00558909
0.00494404
0.00421223
0.00341273
0.00263261
0.00190665
0.00140508
0.0012496
0.0021835
0.00136369
0.00330369
0.0110651
0.00552202
0.00268898
0.00348357
0.00438658
0.00451324
0.00426476
0.00374495
0.0032193
0.00333851
0.00381631
0.00454761
0.00549573
0.00658222
0.0076652
0.00858807
0.00922866
0.00951905
0.00948005
0.00920819
0.00880775
0.00837731
0.00799576
0.00770175
0.00749167
0.00732783
0.00714992
0.00690235
0.00655586
0.00609672
0.00552203
0.00483719
0.00406325
0.00326091
0.00245526
0.00172881
0.00114798
0.00308092
0.00176998
0.00339342
0.0104834
0.00683789
0.00347855
0.00236263
0.00289387
0.00338697
0.00342947
0.00302845
0.0029442
0.00325024
0.00381221
0.00460288
0.00560815
0.00674668
0.00786289
0.00878248
0.00937369
0.00958089
0.00943726
0.00904356
0.00852717
0.0080148
0.00760612
0.0073468
0.00721941
0.0071615
0.00709291
0.00695033
0.00669993
0.00632817
0.00583336
0.00522178
0.00451114
0.00373469
0.00286811
0.00171483
0.0014107
0.00457729
0.00203245
0.00332467
0.00845717
0.00706658
0.00477734
0.00315457
0.00244204
0.00231215
0.00242054
0.00262458
0.00294903
0.00340875
0.004041
0.00490042
0.0059836
0.00718339
0.00831487
0.00918628
0.00966601
0.00971601
0.00939336
0.00882479
0.00816983
0.00758489
0.00718426
0.00700084
0.0069792
0.00701835
0.00701709
0.00692411
0.00672064
0.00640021
0.00596196
0.00540969
0.00475001
0.00395326
0.00273675
0.00129989
0.0026212
0.00455921
0.00205783
0.00311427
0.00722999
0.00683491
0.00546919
0.00420835
0.00338775
0.00298193
0.0028902
0.00305839
0.00336757
0.00381647
0.00448306
0.00543103
0.00661721
0.00787673
0.00898332
0.00973406
0.0100137
0.00981793
0.0092442
0.00846323
0.00768006
0.00708465
0.00678636
0.0067522
0.00684931
0.00694661
0.00694785
0.0068492
0.00665152
0.0063505
0.00594066
0.00541844
0.00476969
0.00384518
0.00215183
0.00153339
0.00309453
0.00420993
0.00202294
0.0028358
0.00651984
0.00659477
0.00579113
0.00492565
0.00427459
0.00389156
0.0037551
0.00378957
0.00397582
0.00438725
0.00513078
0.00622506
0.00753673
0.00882096
0.00981524
0.0103277
0.0102863
0.00974455
0.00886042
0.00787133
0.00704431
0.00657775
0.0064843
0.00656536
0.00669187
0.00677532
0.00675117
0.00663697
0.00643778
0.00614535
0.00574461
0.00521954
0.00454517
0.00346972
0.00168053
0.00180809
0.00327351
0.00409524
0.00196172
0.00258616
0.00583253
0.006298
0.0059179
0.0053622
0.00489576
0.00458587
0.00443453
0.00438918
0.00454767
0.00506942
0.00603979
0.00736158
0.00877827
0.00997613
0.0106946
0.0107979
0.0102927
0.00932014
0.00812324
0.00703681
0.00634386
0.0060437
0.00600746
0.00608816
0.00619456
0.00626451
0.0062462
0.00613466
0.00593651
0.00563795
0.00521568
0.00464938
0.00392266
0.00292797
0.00169823
0.00186782
0.00336907
0.00460498
0.00196531
0.00259467
0.00578842
0.00643542
0.00599023
0.00554024
0.00517198
0.0049065
0.00473347
0.00472498
0.00511039
0.00603076
0.00740389
0.00895023
0.0103134
0.0111814
0.0113722
0.0108663
0.00977895
0.00838073
0.00702702
0.00605125
0.00548651
0.00522108
0.00514559
0.00517449
0.00524334
0.00530271
0.00530021
0.00518879
0.00497196
0.00462267
0.00411334
0.00346131
0.00276513
0.00216607
0.00174691
0.00201503
0.00357394
0.00458677
0.00208989
0.00234194
0.00243525
0.00359215
0.00421924
0.00441228
0.0044141
0.00436985
0.00444926
0.00498751
0.00613485
0.00774529
0.00947794
0.010954
0.0118618
0.0120227
0.0114062
0.0101607
0.00851513
0.00694511
0.00572728
0.00491957
0.0044532
0.00422341
0.00412235
0.00408005
0.00406184
0.00404826
0.00400734
0.00386339
0.00360428
0.00320566
0.00269181
0.0021935
0.0018735
0.00179287
0.00193754
0.00246877
0.00409908
0.00471192
0.00211259
0.000807597
0.00146522
0.00226036
0.00289895
0.00363787
0.00489647
0.00674605
0.00879485
0.0106523
0.0120303
0.0127371
0.0126542
0.0117951
0.0102537
0.00842504
0.00669811
0.0053405
0.00443568
0.00393399
0.00367553
0.00352243
0.00340418
0.0032948
0.00318822
0.00308383
0.00297506
0.00282721
0.00261044
0.0023312
0.00204968
0.00188237
0.00190669
0.00211684
0.00249847
0.00314811
0.00451941
0.00512685
0.00211783
0.00149709
0.00207429
0.0030258
0.00472938
0.00704937
0.00937607
0.0111865
0.0124892
0.0132651
0.0134624
0.0129897
0.01176
0.00996924
0.00797213
0.00616974
0.00484151
0.00406987
0.00369584
0.00350758
0.00338214
0.00327301
0.00316881
0.00307081
0.00298229
0.002903
0.00282554
0.00273163
0.002609
0.00246996
0.00235388
0.00232964
0.00245226
0.00272094
0.00309892
0.00355851
0.00405485
0.00427673
0.00202789
0.0027578
0.00666656
0.00611962
0.00546612
0.00695644
0.00929832
0.011284
0.012629
0.0133374
0.0135079
0.0132151
0.0124358
0.011144
0.00939784
0.00746829
0.00576423
0.00463271
0.00406164
0.00379693
0.00364161
0.00351178
0.00338478
0.00326312
0.00315799
0.00308127
0.00304045
0.00303508
0.00305431
0.00307442
0.00307344
0.00306797
0.00308411
0.00315417
0.00331068
0.00356706
0.00390229
0.00425917
0.00448143
0.00441304
0.00201873
0.00263913
0.00509601
0.00657187
0.00839267
0.00932245
0.0102945
0.010869
0.011017
0.0108117
0.0103028
0.009506
0.0084263
0.00713601
0.00583805
0.00479528
0.00414823
0.00380219
0.00361567
0.00348538
0.0033647
0.0032414
0.00312024
0.00301437
0.00294062
0.00291538
0.0029501
0.00304666
0.00319253
0.00335486
0.00347921
0.00357187
0.00367324
0.00381543
0.00402307
0.00431259
0.00468931
0.00514214
0.0056415
0.005046
0.00226346
0.0024736
0.00211957
0.00210885
0.00216998
0.0022205
0.00215372
0.0020232
0.00186936
0.00171333
0.00156385
0.00142474
0.00130079
0.00119933
0.00112738
0.0010859
0.001068
0.00106536
0.00106883
0.00107521
0.00108432
0.00109737
0.00111605
0.00114172
0.00117469
0.00121386
0.00125707
0.00130186
0.00134636
0.0013899
0.00143337
0.001477
0.00152294
0.00157458
0.00163489
0.00170557
0.00178604
0.00187266
0.00196237
0.00206786
0.00209516
)
;

boundaryField
{
    floor
    {
        type            nutkWallFunction;
        Cmu             0.09;
        kappa           0.41;
        E               9.8;
        value           nonuniform List<scalar> 
36
(
0.000160565
7.63692e-05
0.000109549
0.000110425
0.0001078
0.000103384
9.74407e-05
9.14743e-05
8.59401e-05
8.09182e-05
7.63861e-05
7.2321e-05
6.86464e-05
6.52781e-05
6.21153e-05
5.90188e-05
5.57605e-05
5.30359e-05
4.74964e-05
4.74964e-05
6.15294e-05
7.04707e-05
7.78507e-05
9.2994e-05
0.000121311
0.000116982
0.000160565
0.000175015
0.000167268
0.00016045
7.63692e-05
0.00016045
0.00013602
0.000194689
0.000169852
0.000193915
)
;
    }
    ceiling
    {
        type            nutkWallFunction;
        Cmu             0.09;
        kappa           0.41;
        E               9.8;
        value           nonuniform List<scalar> 
43
(
0.000284308
0.000246314
0.000245156
0.000251772
0.000257228
0.000250044
0.000235912
0.000219116
0.00020192
0.000185278
0.000169625
0.000155531
0.000143883
0.000135562
0.000130745
0.000128669
0.000128371
0.000128783
0.00012953
0.00013059
0.000132101
0.000134259
0.000137221
0.000141022
0.000145536
0.00015051
0.000155656
0.000160756
0.00016573
0.000170676
0.000175623
0.000180803
0.000186596
0.00019333
0.000201189
0.000210099
0.000219651
0.000229519
0.000241052
0.000243938
0.000270451
0.000280422
0.00017758
)
;
    }
    sWall
    {
        type            nutkWallFunction;
        Cmu             0.09;
        kappa           0.41;
        E               9.8;
        value           nonuniform List<scalar> 9(0.000373891 0.000352065 0.000322941 0.000296584 0.000297484 0.00027054 0.000314424 0.000301929 0.00028441);
    }
    nWall
    {
        type            nutkWallFunction;
        Cmu             0.09;
        kappa           0.41;
        E               9.8;
        value           nonuniform List<scalar> 
14
(
0.000116989
0.000139423
0.000162745
0.000239747
0.000235943
0.000229307
0.000229851
0.000243312
0.00024577
0.000246164
0.000236419
0.000235627
0.000262325
0.000243975
)
;
    }
    sideWalls
    {
        type            empty;
    }
    glass1
    {
        type            nutkWallFunction;
        Cmu             0.09;
        kappa           0.41;
        E               9.8;
        value           nonuniform List<scalar> 9(0.00010825 0.000156886 0.000196743 0.000234359 0.000270805 0.000306157 0.000341775 0.000372095 0.000381386);
    }
    glass2
    {
        type            nutkWallFunction;
        Cmu             0.09;
        kappa           0.41;
        E               9.8;
        value           nonuniform List<scalar> 2(0.000208329 0.000237127);
    }
    sun
    {
        type            nutkWallFunction;
        Cmu             0.09;
        kappa           0.41;
        E               9.8;
        value           nonuniform List<scalar> 
14
(
0.000108209
0.000115181
0.000114766
0.000119628
0.000124063
0.000128074
0.000131796
0.000135373
0.000138964
0.00014277
0.000146389
0.000149819
0.00015319
0.000156804
)
;
    }
    Table_master
    {
        type            nutkWallFunction;
        Cmu             0.09;
        kappa           0.41;
        E               9.8;
        value           nonuniform List<scalar> 9(0.000139346 0.000121723 0.000107913 9.69562e-05 8.81291e-05 8.09273e-05 7.49981e-05 7.01363e-05 6.63192e-05);
    }
    Table_slave
    {
        type            nutkWallFunction;
        Cmu             0.09;
        kappa           0.41;
        E               9.8;
        value           nonuniform List<scalar> 9(0.000157762 0.000144097 0.000133416 0.000124451 0.000116747 0.000109776 0.000103154 9.65293e-05 8.93159e-05);
    }
    inlet
    {
        type            calculated;
        value           uniform 0.000167705;
    }
    outlet
    {
        type            calculated;
        value           nonuniform List<scalar> 2(0.0027578 0.00666656);
    }
}


// ************************************************************************* //
