/*--------------------------------*- C++ -*----------------------------------*\
  =========                 |
  \\      /  F ield         | OpenFOAM: The Open Source CFD Toolbox
   \\    /   O peration     | Website:  https://openfoam.org
    \\  /    A nd           | Version:  6
     \\/     M anipulation  |
\*---------------------------------------------------------------------------*/
FoamFile
{
    version     2.0;
    format      ascii;
    class       volScalarField;
    location    "1320";
    object      alphat;
}
// * * * * * * * * * * * * * * * * * * * * * * * * * * * * * * * * * * * * * //

dimensions      [1 -1 -1 0 0 0 0];

internalField   nonuniform List<scalar> 
458
(
0.00124412
0.00135525
0.00138595
0.00145227
0.00151336
0.0015712
0.00162907
0.00168782
0.00173587
0.00176608
0.00176952
0.0017374
0.00165866
0.00149197
0.0011318
0.000559117
0.00065549
0.000743176
0.000774896
0.000762757
0.00071377
0.000659576
0.000611086
0.000569083
0.000532601
0.000500746
0.00047287
0.000448152
0.000425638
0.000404284
0.000382842
0.000370096
0.000340112
0.00167645
0.00377418
0.00348147
0.00398908
0.00449521
0.00501586
0.00548306
0.00584445
0.00621577
0.00656352
0.00684256
0.00701206
0.0070278
0.0067829
0.00551214
0.00149409
0.00123951
0.00101123
0.000554597
0.00131633
0.00191848
0.00238459
0.00253196
0.00184525
0.00155774
0.00136212
0.00121774
0.00110713
0.00101936
0.000943676
0.000872546
0.000801551
0.000738123
0.000684955
0.000837916
0.000447107
0.00203695
0.00507215
0.00418632
0.00510419
0.00548991
0.00576078
0.005969
0.00616129
0.00642921
0.00675509
0.0071113
0.00746024
0.00773547
0.00783141
0.00737876
0.0060135
0.0045573
0.00119437
0.00085426
0.00147424
0.0021452
0.00281251
0.00300306
0.000959353
0.000839892
0.000740499
0.000659996
0.00059503
0.000542382
0.000499586
0.000464977
0.000438057
0.000485434
0.000562188
0.000983162
0.000528378
0.00238378
0.00647791
0.00407209
0.00528755
0.0054985
0.00547734
0.00545776
0.00554994
0.00576802
0.00609078
0.00650083
0.00695788
0.00735765
0.0076085
0.00755115
0.00716017
0.00614508
0.00337361
0.00137592
0.00175187
0.00240822
0.00321192
0.00390865
0.00394277
0.00108049
0.000990392
0.000929024
0.000883724
0.000845426
0.000807357
0.000771214
0.000733029
0.000688399
0.000648442
0.000639023
0.00117175
0.000608552
0.00273783
0.00836871
0.004271
0.00501898
0.00532042
0.00514002
0.00499321
0.00507686
0.0053073
0.00564344
0.00608586
0.00658714
0.00697892
0.00717343
0.00716796
0.0070307
0.00662534
0.00547846
0.00496513
0.00500094
0.00529204
0.00563887
0.00585153
0.00575516
0.00490997
0.00447545
0.00423593
0.00406443
0.00389082
0.00366744
0.00328731
0.00279779
0.002241
0.0017047
0.00127865
0.00119139
0.00103429
0.000813322
0.00086076
0.000935588
0.00311664
0.0104976
0.00584874
0.00464669
0.00506387
0.00505296
0.00486542
0.00493501
0.00517025
0.00550686
0.00595578
0.00643648
0.00679919
0.00691459
0.0068041
0.00664652
0.00657555
0.00648092
0.00667569
0.00701353
0.00725042
0.00729234
0.00713229
0.00679784
0.00633108
0.00595192
0.00565663
0.00539649
0.00514102
0.00486991
0.00451975
0.00403966
0.00343242
0.00274553
0.00210983
0.00152998
0.00125755
0.0010969
0.0013812
0.000970514
0.00348933
0.012102
0.00872461
0.00571043
0.00496906
0.00504006
0.0051035
0.00514035
0.00527421
0.00557147
0.00601345
0.00648996
0.00682232
0.00685864
0.00664924
0.00649782
0.00674691
0.00729963
0.00786224
0.00817956
0.00817993
0.00790734
0.0074459
0.00688443
0.00632526
0.00587535
0.0055346
0.00525832
0.00501656
0.0047996
0.00460221
0.00434408
0.00391965
0.00335249
0.00276342
0.00219746
0.00182809
0.00167467
0.00159625
0.00115311
0.00357893
0.0112149
0.00952693
0.00799826
0.00682857
0.00631029
0.00582353
0.00549388
0.00549007
0.00577417
0.00623149
0.00670197
0.00698129
0.00691622
0.00665966
0.00672332
0.00743546
0.00801975
0.00832392
0.00830965
0.00797911
0.00740772
0.00670487
0.00599602
0.00540701
0.00499424
0.00471581
0.00451583
0.00436786
0.00426811
0.00422381
0.00422588
0.00411282
0.00377576
0.00344722
0.0032642
0.003344
0.00353
0.00419319
0.00178524
0.00350478
0.00423034
0.00467525
0.00492478
0.00496206
0.0048888
0.00489227
0.00510058
0.0055205
0.0060542
0.00659937
0.00702795
0.00716468
0.00691732
0.00684717
0.00720832
0.00762582
0.00776874
0.00766467
0.00730185
0.0066938
0.00594306
0.00519356
0.00457851
0.00415287
0.00388187
0.00370005
0.00356185
0.00344405
0.00333344
0.00321999
0.00309542
0.00298242
0.0028846
0.0028198
0.00278326
0.0027138
0.00257082
0.00239712
0.00166671
0.0015797
0.00276042
0.0037765
0.00457223
0.00530113
0.00601024
0.00657161
0.00694751
0.00719144
0.00722415
0.00698609
0.00669737
0.00669844
0.00681784
0.00672592
0.006455
0.00602793
0.0054529
0.00479169
0.0041456
0.00363131
0.00328484
0.00307243
0.00294203
0.00285542
0.00279232
0.00274395
0.00270823
0.00268815
0.00269439
0.00271012
0.00272412
0.00272483
0.0026817
0.00254871
0.00231444
0.0020242
0.00134113
0.00238084
0.00465374
0.00595165
0.0067923
0.00744584
0.00749568
0.0071037
0.00671013
0.00637232
0.00573431
0.00528106
0.00517581
0.00510445
0.00490471
0.00460364
0.00423048
0.00379291
0.00333254
0.00291738
0.0025945
0.00237178
0.00224337
0.00218314
0.00217012
0.00219131
0.00223852
0.00230455
0.00238093
0.00247036
0.002573
0.00268284
0.00279071
0.00287843
0.00292222
0.00288131
0.00284562
0.00261997
0.00135861
0.00249159
0.00255349
0.00260943
0.00289321
0.00272898
0.00241415
0.00203346
0.0017284
0.00154185
0.00136504
0.00120955
0.00108788
0.000984898
0.000906869
0.000852649
0.000813036
0.00078118
0.00075377
0.000731138
0.000715867
0.000710168
0.000714441
0.000727126
0.000745776
0.00076934
0.000797265
0.000829391
0.00086591
0.000907422
0.000955227
0.00100962
0.0010702
0.00113728
0.00121116
0.00129189
0.00138862
0.00143093
0.0014016
0.00130365
0.00120556
)
;

boundaryField
{
    floor
    {
        type            compressible::alphatWallFunction;
        Prt             0.85;
        value           nonuniform List<scalar> 
36
(
0.000160687
7.82028e-05
9.26091e-05
0.000105493
0.000110109
0.000108346
0.000101195
9.32149e-05
8.60068e-05
7.97063e-05
7.41872e-05
6.93294e-05
6.50468e-05
6.12226e-05
5.77161e-05
5.43683e-05
5.09838e-05
4.89604e-05
4.41647e-05
4.41641e-05
6.1061e-05
7.35464e-05
8.563e-05
0.000115678
0.000122505
0.000133176
0.000160685
0.000210156
0.000175558
0.000143842
7.82018e-05
0.00014384
7.75193e-05
0.000169344
0.000121557
0.000194189
)
;
    }
    ceiling
    {
        type            compressible::alphatWallFunction;
        Prt             0.85;
        value           nonuniform List<scalar> 
43
(
0.000340273
0.000348136
0.000355227
0.000391032
0.00037044
0.000330542
0.000281532
0.000241537
0.000216701
0.000192846
0.000171576
0.000154714
0.000140271
0.00012921
0.000121459
0.000115758
0.00011115
0.000107167
0.000103865
0.00010163
0.000100795
0.000101422
0.000103279
0.000106003
0.000109432
0.00011348
0.000118117
0.000123361
0.000129291
0.00013608
0.000143758
0.000152251
0.000161591
0.000171806
0.000182887
0.000196062
0.000201791
0.000197821
0.000184496
0.000171038
0.00046712
0.000555328
0.000326053
)
;
    }
    sWall
    {
        type            compressible::alphatWallFunction;
        Prt             0.85;
        value           uniform 0.00033903;
    }
    nWall
    {
        type            compressible::alphatWallFunction;
        Prt             0.85;
        value           nonuniform List<scalar> 6(0.000132957 0.000137898 0.000163428 0.000189266 0.000191642 0.000170697);
    }
    sideWalls
    {
        type            empty;
    }
    glass1
    {
        type            compressible::alphatWallFunction;
        Prt             0.85;
        value           nonuniform List<scalar> 9(0.00017166 0.000229167 0.000275991 0.000320288 0.000364871 0.000411952 0.000457736 0.000468805 0.000459997);
    }
    glass2
    {
        type            compressible::alphatWallFunction;
        Prt             0.85;
        value           nonuniform List<scalar> 2(0.000247085 0.000231543);
    }
    sun
    {
        type            compressible::alphatWallFunction;
        Prt             0.85;
        value           nonuniform List<scalar> 
14
(
0.00017621
0.00019138
0.000195548
0.000204522
0.000212747
0.000220501
0.000228226
0.000236039
0.000242405
0.000246398
0.000246851
0.000242606
0.000232164
0.00020987
)
;
    }
    Table_master
    {
        type            compressible::alphatWallFunction;
        Prt             0.85;
        value           nonuniform List<scalar> 9(0.000136678 0.000119641 0.000105246 9.34156e-05 8.37404e-05 7.5804e-05 6.92819e-05 6.3956e-05 5.97786e-05);
    }
    Table_slave
    {
        type            compressible::alphatWallFunction;
        Prt             0.85;
        value           nonuniform List<scalar> 9(0.000153706 0.000141066 0.000132381 0.000125926 0.000120439 0.000114955 0.00010972 0.000104157 9.76109e-05);
    }
    inlet
    {
        type            fixedValue;
        value           uniform 1.94e-05;
    }
    outlet
    {
        type            zeroGradient;
    }
}


// ************************************************************************* //
