/*--------------------------------*- C++ -*----------------------------------*\
  =========                 |
  \\      /  F ield         | OpenFOAM: The Open Source CFD Toolbox
   \\    /   O peration     | Website:  https://openfoam.org
    \\  /    A nd           | Version:  6
     \\/     M anipulation  |
\*---------------------------------------------------------------------------*/
FoamFile
{
    version     2.0;
    format      ascii;
    class       volScalarField;
    location    "1320";
    object      epsilon;
}
// * * * * * * * * * * * * * * * * * * * * * * * * * * * * * * * * * * * * * //

dimensions      [0 2 -3 0 0 0 0];

internalField   nonuniform List<scalar> 
458
(
0.000432842
0.000557957
0.000596652
0.000686451
0.00077675
0.000869231
0.000968818
0.00107742
0.001172
0.00123415
0.00124127
0.00117485
0.00102229
0.000744115
0.000324981
3.92339e-05
6.32054e-05
9.21084e-05
0.000104419
9.95949e-05
8.16163e-05
6.44052e-05
5.12218e-05
4.13712e-05
3.39156e-05
2.8188e-05
2.3739e-05
2.02085e-05
1.73143e-05
1.48376e-05
1.26005e-05
1.13842e-05
8.83747e-06
0.00106107
0.00158342
0.000518556
0.000502733
0.000518591
0.000551078
0.000606446
0.000688677
0.000779947
0.000854176
0.000882256
0.000847989
0.000757024
0.00062408
0.000502084
0.000747452
0.000426819
0.000231817
3.82949e-05
7.53687e-05
9.27545e-05
9.34421e-05
8.97445e-05
9.00478e-05
7.05692e-05
5.34994e-05
4.08104e-05
3.15391e-05
2.47425e-05
1.97238e-05
1.59685e-05
1.31693e-05
1.14069e-05
1.06894e-05
3.0488e-05
2.00747e-05
0.00190716
0.00384785
0.000603865
0.000458394
0.000466149
0.00050831
0.000580643
0.000683885
0.000797395
0.000884661
0.000918331
0.000888211
0.000802226
0.000667329
0.000517764
0.000416519
0.000353162
0.000381955
0.000139903
0.000139222
0.000125584
0.000111534
0.000103542
0.000198179
0.000132983
9.1138e-05
6.45285e-05
4.72875e-05
3.58137e-05
2.79877e-05
2.25649e-05
1.88684e-05
1.4829e-05
1.31283e-05
6.4871e-05
3.31324e-05
0.00306291
0.00799429
0.000903938
0.000439063
0.000429314
0.000481359
0.00057512
0.000718155
0.00086297
0.000958373
0.000989626
0.000953288
0.000855549
0.000703576
0.000548698
0.000432515
0.000365999
0.000380617
0.000584021
0.00037594
0.000245246
0.000178339
0.000140513
0.000123034
0.000283294
0.000218206
0.000180129
0.000155061
0.000135774
0.000118254
0.000103078
8.85159e-05
7.33142e-05
4.54025e-05
2.9293e-05
0.000114637
5.06232e-05
0.00464977
0.014427
0.00174057
0.000470958
0.000395714
0.000451719
0.000589081
0.00083311
0.00101882
0.00111214
0.00112868
0.00106954
0.000937731
0.000753938
0.000565024
0.000420194
0.000331768
0.000302776
0.000303891
0.000253667
0.000209439
0.000175174
0.000146347
0.000122113
0.000113101
0.000103844
9.75619e-05
9.22131e-05
8.62141e-05
7.87799e-05
7.08926e-05
6.31624e-05
5.59069e-05
4.60319e-05
3.61915e-05
7.47544e-05
0.000114587
0.000120968
0.000143505
0.000184282
0.00687179
0.0217347
0.00400218
0.000790952
0.000465247
0.000474228
0.000701078
0.00112032
0.00130661
0.00136627
0.00134395
0.0012465
0.00106752
0.000825453
0.000577799
0.000388844
0.000278917
0.0002386
0.000228299
0.000218309
0.0002012
0.000176822
0.00014935
0.000123799
0.00010736
0.000100932
9.97659e-05
9.93591e-05
9.7219e-05
9.1678e-05
8.17205e-05
7.04555e-05
5.98091e-05
5.01493e-05
4.34409e-05
5.55244e-05
8.83465e-05
0.000106126
0.000206704
0.000205618
0.00965898
0.0261937
0.00879646
0.00280156
0.00145486
0.00114156
0.00148386
0.00172726
0.00178652
0.00174961
0.00165025
0.00148386
0.00123026
0.000908335
0.000588382
0.000356002
0.000234582
0.000200286
0.000202445
0.000203091
0.000190108
0.00016692
0.000141394
0.000120244
0.000109097
0.00010857
0.000113678
0.000120166
0.00012574
0.000128187
0.000124109
0.000111096
9.74941e-05
8.59385e-05
8.04502e-05
8.87253e-05
0.000120585
0.000176776
0.000327316
0.000344805
0.0104469
0.0300944
0.0160952
0.00965341
0.00597124
0.00418189
0.00338459
0.00287675
0.00253877
0.00228177
0.00203964
0.00176143
0.00139751
0.00096856
0.000561459
0.000300555
0.000190456
0.000174457
0.000179711
0.000177193
0.000162272
0.000142012
0.000124163
0.000113561
0.000112246
0.000119071
0.000131182
0.000146864
0.000165746
0.000187734
0.000212033
0.000232949
0.000246018
0.000273127
0.000329084
0.000480065
0.000820451
0.00137755
0.00410994
0.00128191
0.00984351
0.0172555
0.0132405
0.00999036
0.00750832
0.00579436
0.00459019
0.00379136
0.00325175
0.00282438
0.0024275
0.00200689
0.00148411
0.000914191
0.000407076
0.000216141
0.000158936
0.00014759
0.000144516
0.000136986
0.000124645
0.000112521
0.000104991
0.000104119
0.000109956
0.000121522
0.000138067
0.000159895
0.000188362
0.000225719
0.000275033
0.000339925
0.000427246
0.000551956
0.000734029
0.000976734
0.001251
0.00149865
0.00170337
0.00104494
0.00347918
0.00472051
0.00512321
0.00502845
0.00473343
0.00432029
0.003784
0.00315875
0.00254832
0.00194863
0.00116376
0.000536552
0.000254545
0.000159695
0.000129175
0.000118204
0.000110934
0.000103114
9.54603e-05
8.99692e-05
8.84386e-05
9.12979e-05
9.81569e-05
0.000108611
0.000122664
0.000140894
0.00016455
0.000195756
0.000237984
0.000297004
0.000378467
0.000488603
0.000629971
0.000786485
0.000911359
0.000944883
0.00087131
0.000544328
0.00289509
0.00862152
0.00828292
0.00717372
0.00607578
0.00479002
0.00347877
0.00225692
0.00128308
0.00071009
0.000375226
0.000215383
0.000151228
0.000124133
0.000111049
0.000102158
9.41689e-05
8.70035e-05
8.16655e-05
7.88953e-05
7.89736e-05
8.20096e-05
8.79648e-05
9.70193e-05
0.000109695
0.000126898
0.000150022
0.000181139
0.000223206
0.000279995
0.000356634
0.000458325
0.000585895
0.000728714
0.000842176
0.000956427
0.000733742
0.000565825
0.00336791
0.00362375
0.00386701
0.00532544
0.00449745
0.00312983
0.0018793
0.0011579
0.000823561
0.000572224
0.000398428
0.000290014
0.000215267
0.00016808
0.000139714
0.000121142
0.000107459
9.6544e-05
8.81095e-05
8.27049e-05
8.07465e-05
8.22131e-05
8.66704e-05
9.35114e-05
0.000102658
0.000114247
0.000128621
0.000146369
0.000168445
0.000196493
0.00023201
0.000276332
0.000331617
0.00040055
0.000486127
0.000603759
0.000660716
0.000620955
0.000499682
0.000395318
)
;

boundaryField
{
    floor
    {
        Cmu             0.09;
        kappa           0.41;
        E               9.8;
        type            epsilonWallFunction;
        value           nonuniform List<scalar> 
36
(
0.000324981
3.92339e-05
6.32054e-05
9.21084e-05
0.000104419
9.95949e-05
8.16163e-05
6.44052e-05
5.12218e-05
4.13712e-05
3.39156e-05
2.8188e-05
2.3739e-05
2.02085e-05
1.73143e-05
1.48376e-05
1.26005e-05
1.13842e-05
8.83747e-06
8.83747e-06
2.00747e-05
3.31324e-05
5.06232e-05
0.000120968
0.000143505
0.000184282
0.000324981
0.000747452
0.000426819
0.000231817
3.92339e-05
0.000231817
3.82949e-05
0.000381955
0.000139903
0.000584021
)
;
    }
    ceiling
    {
        Cmu             0.09;
        kappa           0.41;
        E               9.8;
        type            epsilonWallFunction;
        value           nonuniform List<scalar> 
43
(
0.00336791
0.00362375
0.00386701
0.00532544
0.00449745
0.00312983
0.0018793
0.0011579
0.000823561
0.000572224
0.000398428
0.000290014
0.000215267
0.00016808
0.000139714
0.000121142
0.000107459
9.6544e-05
8.81095e-05
8.27049e-05
8.07465e-05
8.22131e-05
8.66704e-05
9.35114e-05
0.000102658
0.000114247
0.000128621
0.000146369
0.000168445
0.000196493
0.00023201
0.000276332
0.000331617
0.00040055
0.000486127
0.000603759
0.000660716
0.000620955
0.000499682
0.000395318
0.00984351
0.0172555
0.00289509
)
;
    }
    sWall
    {
        Cmu             0.09;
        kappa           0.41;
        E               9.8;
        type            epsilonWallFunction;
        value           uniform 0.00336791;
    }
    nWall
    {
        Cmu             0.09;
        kappa           0.41;
        E               9.8;
        type            epsilonWallFunction;
        value           nonuniform List<scalar> 6(0.000184282 0.000205618 0.000344805 0.000544328 0.000565825 0.000395318);
    }
    sideWalls
    {
        type            empty;
    }
    glass1
    {
        Cmu             0.09;
        kappa           0.41;
        E               9.8;
        type            epsilonWallFunction;
        value           nonuniform List<scalar> 9(0.000432842 0.00106107 0.00190716 0.00306291 0.00464977 0.00687179 0.00965898 0.0104469 0.00984351);
    }
    glass2
    {
        Cmu             0.09;
        kappa           0.41;
        E               9.8;
        type            epsilonWallFunction;
        value           nonuniform List<scalar> 2(0.00128191 0.00104494);
    }
    sun
    {
        Cmu             0.09;
        kappa           0.41;
        E               9.8;
        type            epsilonWallFunction;
        value           nonuniform List<scalar> 
14
(
0.000432842
0.000557957
0.000596652
0.000686451
0.00077675
0.000869231
0.000968818
0.00107742
0.001172
0.00123415
0.00124127
0.00117485
0.00102229
0.000744115
)
;
    }
    Table_master
    {
        Cmu             0.09;
        kappa           0.41;
        E               9.8;
        type            epsilonWallFunction;
        value           nonuniform List<scalar> 9(0.000198179 0.000132983 9.1138e-05 6.45285e-05 4.72875e-05 3.58137e-05 2.79877e-05 2.25649e-05 1.88684e-05);
    }
    Table_slave
    {
        Cmu             0.09;
        kappa           0.41;
        E               9.8;
        type            epsilonWallFunction;
        value           nonuniform List<scalar> 9(0.000283294 0.000218206 0.000180129 0.000155061 0.000135774 0.000118254 0.000103078 8.85159e-05 7.33142e-05);
    }
    inlet
    {
        type            turbulentMixingLengthDissipationRateInlet;
        mixingLength    0.01;
        phi             phi;
        k               k;
        value           uniform 0.000471672;
    }
    outlet
    {
        type            zeroGradient;
    }
}


// ************************************************************************* //
