/*--------------------------------*- C++ -*----------------------------------*=========                 |
  \      /  F ield         | OpenFOAM: The Open Source CFD Toolbox
   \    /   O peration     | Website:  https://openfoam.org
    \  /    A nd           | Version:  6
     \/     M anipulation  |
\*---------------------------------------------------------------------------*/
FoamFile
{
    version     2.0;
    format      ascii;
    class       volScalarField;
    location    "570";
    object      PMV;
}
// * * * * * * * * * * * * * * * * * * * * * * * * * * * * * * * * * * * * * //

dimensions      [0 0 0 0 0 0 0];

internalField   nonuniform List<scalar> 
458
(
1.3237982521381364
1.077696799116717
1.0449718790682474
1.016045405822259
0.9975528370031639
0.9894321935190665
0.9919936233387103
1.0062825741643158
1.0355879003028963
1.0837413890826484
1.1544907435705405
1.2244582679228806
1.2402134308977824
1.2488068180424443
1.260741665386488
1.3762422697700099
1.3628815425694674
1.359064035234114
1.365744627799319
1.3705163493828039
1.3743336474152024
1.3699032169321301
1.3660768058671848
1.3670409069987373
1.368938622698806
1.371922802967361
1.3751924190939653
1.3795537745438193
1.386465044322195
1.3972773034848858
1.406300651448282
1.4105943224483244
1.4249058372295653
1.2563268597096597
1.0896890849224228
1.0776705796336987
1.0491435605138426
1.032318539495712
1.0238956056529323
1.025025727080317
1.0334410701718122
1.0478013380350797
1.0725145907761873
1.112905957756903
1.1743243428989372
1.2368714927435411
1.247852009352871
1.2542926880968517
1.2122044710096993
1.2121629034042083
1.2350638462727817
1.3301374281620915
1.3495199695244202
1.3495199695244202
1.3571552558988385
1.3599187012811134
1.3595698212776828
1.359641457255846
1.3612554081150545
1.3619784397245038
1.362259774625697
1.3627058741074285
1.3639922504166704
1.3655831572697723
1.3687027189681256
1.3773086535265697
1.3857851112715982
1.3924648279658836
1.3760566384235777
1.2881033731757852
1.0807151592077682
1.1103899037822234
1.095303847716872
1.0880580030284297
1.0844656154670649
1.0843749719075235
1.08126130544699
1.0675640348620854
1.0558482334306358
1.0671673265829948
1.1160406607571887
1.2082789634015367
1.254535605600859
1.260741665386488
1.264083334365998
1.2641220685818284
1.2452631329998243
1.2403947092721603
1.3039102331322452
1.3135295407777503
1.3219115847612735
1.3331635455633988
1.337284450884936
1.359866634097656
1.3743336474152024
1.3743336474152024
1.3748108046766536
1.3748108046766536
1.3752879608239021
1.375765115855467
1.3762422697700099
1.37910516971872
1.3824451683549537
1.3754170841507496
1.3026003493371925
1.3623376483395204
1.0744340415756117
1.1340321732443412
1.144968981223757
1.1620986296083116
1.173668332813329
1.1756553654625967
1.151448946169597
1.0940557024648023
1.0404541968826977
1.0285651055600578
1.074741842765066
1.1675945263026084
1.261013951331356
1.2745854639900256
1.2760175416726374
1.24915988913093
1.2249669498755074
1.174882819727153
1.2409359958323338
1.2773634531013065
1.3033472616453714
1.3334863762996645
1.3680951807416013
1.3947364320533817
1.3890228288757867
1.3833334411821454
1.3821951543189637
1.3834274759088874
1.3859782595530785
1.393041665134036
1.40623297565068
1.4294891403652743
1.4284311887828849
1.4139337758759167
1.3553119663545423
1.258574203872477
1.457015462917586
1.0827247618985663
1.1515691035889715
1.1889912799004476
1.2445764313062722
1.2913950813320285
1.3004860214449419
1.2274002065599143
1.1163017062957181
1.0267642315127068
0.9994245438282732
1.0486097619662609
1.1436394755983224
1.2468467918227062
1.2941565295959376
1.2960658236689353
1.2842734045541502
1.2554607233491402
1.2541086488690527
1.2704389672074008
1.3018777972883264
1.3422454357340459
1.3841207098490322
1.424499772677512
1.452571491723825
1.4646267882312594
1.465569392264701
1.4652134986092407
1.4635519710657945
1.460668107241018
1.458631602833988
1.4579681609326514
1.4571384397124385
1.4418349192238162
1.4153797525431207
1.3398043785160167
1.340151692027713
1.3377398126474698
1.4223272851455346
1.3008230383920671
1.554035557275135
1.1128566958905042
1.1828198953339855
1.2210409194148601
1.3062445943321424
1.3819680290925322
1.417963004811672
1.2563275557826243
1.1145626682465264
1.0096065233534368
0.9796054597760658
1.0329985986481656
1.1394211859699173
1.2587348991402783
1.322317137473505
1.328044317674912
1.325658009579037
1.327089797362247
1.3388209511826985
1.359405647433796
1.3936189552316396
1.4258598980706023
1.4535254000669657
1.4759406513053968
1.4926308077949686
1.5045512321304964
1.5121798018309003
1.516947455259184
1.5183777205724651
1.5174242119449888
1.5131333450677564
1.5064584116673612
1.4888459476545004
1.4589104486297222
1.4218645719493694
1.3510702171620932
1.3447080657749617
1.3380979956862864
1.3630629091436646
1.3708902527234286
1.6463827187876998
1.1996800873371154
1.3021966752500411
1.2800640572730362
1.3350692745314503
1.4148878943433916
1.3486631448129442
1.2267044899182673
1.0843362662879144
0.9800998780218731
0.9605825764034726
1.0325790690371421
1.1626321653321765
1.3056792123889585
1.3609727974875108
1.3719478444446267
1.372425007255781
1.3781508742288489
1.396281706446457
1.4220436243085242
1.4501866971265849
1.477371306074267
1.4997831760658686
1.5174242119449888
1.529342610865006
1.5369698552416475
1.5407833193081617
1.5422133408955276
1.5412599948387957
1.537923231203923
1.531249461210078
1.5221916915756233
1.5112262523456639
1.4944608552301086
1.450075508565117
1.3874156609644628
1.358588755737567
1.33757671578232
1.3094464600654458
1.4159610981027708
1.7875847250300552
1.5728957520450861
1.514791878961838
1.3980366212285311
1.376721458160574
1.3655787247355835
1.2937782388783836
1.151141421567084
1.0020021586659758
0.9209375741812867
0.9422999643964215
1.0610368663728091
1.2313034283190756
1.3705163493828039
1.4110713909061656
1.4234747364573053
1.4277680044808514
1.4377852254625663
1.4573409788637959
1.4811863219320114
1.5045512321304964
1.5245753715747874
1.5398299632512344
1.550316511064885
1.5565127216697139
1.55889580220435
1.559372413117718
1.5584191895573647
1.555559477371276
1.5512697930472361
1.5450733389026396
1.5364931647820088
1.5260055603093459
1.5136101143387777
1.5002599885325816
1.4854781034942381
1.4761663436537573
1.4487298967589544
1.369328318116082
1.283411541980608
1.996664078613229
1.8491741347890727
1.6874221612297962
1.5444922644148948
1.4523356713247995
1.3804138105456227
1.1850162154678254
0.9648987956389271
0.83416535410021
0.8358132356954042
0.9550929366773361
1.1611499776271028
1.3562008598534745
1.4354002247105002
1.4649718718656304
1.477371306074267
1.485954960790245
1.4983527295624128
1.5155171757338748
1.5326795818514736
1.5484099266990707
1.5603256297365138
1.5662262747797517
1.5619304185295275
1.5562432006280973
1.5494232195620639
1.5416930261849213
1.5331144497536817
1.522907289142094
1.511484461032885
1.4978739581683906
1.4834627422400175
1.4689875520427902
1.4526708593394264
1.4332011149807777
1.4149307079185738
1.4035177186115948
1.3993803582520608
1.3889549377091306
1.3580797152809407
-1.6634420705677904
-0.7600286045234697
-0.20418379612280532
-0.0047476199084515985
0.13971414241549815
0.3273365035737864
0.5702149041076835
0.8484337822373007
1.1435694514712778
1.3557236602412408
1.4549562523684132
1.4735111051827947
1.48238475604402
1.4909650808350619
1.5016409534378687
1.5144266214818853
1.5262673841917993
1.535135359253046
1.539341294245097
1.539580065953217
1.5368311701980304
1.5321807212211256
1.5255262040877775
1.5181403878326998
1.509539810299848
1.500951733787723
1.4918988980621877
1.48449974492921
1.4788007365940918
1.4749671572957164
1.4716983471725764
1.469854591499974
1.4679228703664795
1.4686414821380844
1.4791352690401702
1.5154476059514355
1.582684764930561
1.4304046039009235
-1.6747598959812189
-0.5902969525285736
-0.013122586113335787
0.3085584278694212
0.5195266695485254
0.7802769539987069
1.052065215324166
1.2817457768325018
1.3755132016514342
1.41934055824448
1.4481019644909028
1.4645321031572711
1.4758554120890355
1.4849331638981935
1.493531427073314
1.5009631935908414
1.5070544775254688
1.5121751370012553
1.5145060376905328
1.5150683402560858
1.5139692932840672
1.5113475803730445
1.508325735183617
1.505068433621747
1.5017463090522811
1.4985425241946042
1.496170140140854
1.4950926698514775
1.4947779341422414
1.4974645094912309
1.5042684087436713
1.5158724229609057
1.5286332112131031
1.5384888598326352
1.5491809152201341
1.5843637112356597
1.5323115986024805
1.4734581319792626
-1.1326121729289604
-1.1314849518666152
-1.0079599565463464
-0.20749963350519995
0.37680548517612333
0.7919290698410243
1.0900726399881369
1.237033540472642
1.325360068760572
1.3793538021849927
1.413768246525546
1.438137936041287
1.4530342417359847
1.4618905003116431
1.4669679957249533
1.4704711326584812
1.472267139008405
1.4722080029436602
1.4706302920926515
1.4683968526147142
1.4653891819583194
1.4622233858209002
1.4595576837963842
1.457487058466771
1.4556164922110881
1.4546365197717641
1.4548050685562364
1.45649159357801
1.4602214931205126
1.4667350434287996
1.4761333728580976
1.4904685810228802
1.513762681198013
1.5542992574098031
1.6136928449107855
1.6198858861086705
1.5918687367880577
1.5324038774623305
1.4807434790574816
1.4937707706186312
)
;

boundaryField
{
    ".*"
    {
        type            zeroGradient;
    }
}


// ************************************************************************* //
