/*--------------------------------*- C++ -*----------------------------------*\
  =========                 |
  \\      /  F ield         | OpenFOAM: The Open Source CFD Toolbox
   \\    /   O peration     | Website:  https://openfoam.org
    \\  /    A nd           | Version:  6
     \\/     M anipulation  |
\*---------------------------------------------------------------------------*/
FoamFile
{
    version     2.0;
    format      ascii;
    class       surfaceScalarField;
    location    "680";
    object      phi;
}
// * * * * * * * * * * * * * * * * * * * * * * * * * * * * * * * * * * * * * //

dimensions      [1 0 -1 0 0 0 0];

internalField   nonuniform List<scalar> 
850
(
-0.00305367
0.00311411
-0.00414732
0.00109365
-0.00501675
0.000869431
-0.00570563
0.000688877
-0.00617749
0.000471859
-0.00639828
0.000220787
-0.00632836
-6.99234e-05
-0.00592361
-0.000404748
-0.00517239
-0.000751219
-0.00412643
-0.00104596
-0.0028977
-0.00122872
-0.00163902
-0.00125868
-0.000537293
-0.00110173
0.000136158
-0.000673451
0.000138507
-0.000922676
0.00092633
-0.000690752
-0.000231925
-6.17884e-05
-0.000628965
0.000541796
-0.000603585
0.00100139
-0.000459592
0.00125815
-0.00025676
0.00136637
-0.000108227
0.00141928
-5.29043e-05
0.00144984
-3.05647e-05
0.00146494
-1.51061e-05
0.00146842
-3.47944e-06
0.00146147
6.95136e-06
0.00143837
2.31019e-05
0.00138004
5.83309e-05
0.00125431
0.000125721
0.00105079
0.00020352
0.000793822
0.00025697
0.000798658
-0.00220782
0.00548531
-0.003296
0.00218183
-0.00420936
0.00178279
-0.00490708
0.0013866
-0.00538836
0.000953132
-0.00563086
0.00046329
-0.00559416
-0.00010662
-0.00523909
-0.00075982
-0.00456472
-0.00142559
-0.00364003
-0.00197065
-0.00258507
-0.00228369
-0.00153865
-0.0023051
-0.000626272
-0.00201411
9.49099e-05
-0.00139463
0.000874132
-0.000640717
0.00114926
-0.000271351
0.000956796
0.000196823
0.000969475
4.05593e-05
0.000896766
0.000420785
-0.000612152
0.000786072
-0.000994252
0.00109928
-0.000916798
0.0013503
-0.000710606
0.00140683
-0.000313293
0.00141492
-0.000116323
0.00142555
-6.35285e-05
0.00143455
-3.95658e-05
0.00143978
-2.03436e-05
0.00144213
-5.83123e-06
0.00144175
7.32891e-06
0.00143629
2.85646e-05
0.00139982
9.47996e-05
0.00124706
0.000278484
0.000978761
0.000471814
0.000644883
0.000590847
0.00145592
-0.00156247
0.00729817
-0.00251068
0.00313003
-0.00334329
0.00261541
-0.00396573
0.00200903
-0.00441303
0.00140043
-0.00466113
0.000711389
-0.00465481
-0.000112944
-0.0043326
-0.00108203
-0.00371027
-0.00204792
-0.00288536
-0.00279556
-0.00198312
-0.00318593
-0.00111938
-0.00316884
-0.000370562
-0.00276293
0.00024329
-0.00200849
0.00075419
-0.00115162
0.000901024
-0.000418186
0.00070872
0.000389126
0.00168945
0.00143733
-0.000526726
0.00163287
-0.000807695
0.00157506
-0.000936444
0.00160826
-0.00095
0.00181188
-0.000914225
0.00149874
0.00138257
0.00131919
0.00127978
0.00125959
0.00125391
0.00126139
0.00129011
0.00138506
0.00115813
0.000505416
0.000869517
0.000760428
0.000498861
0.000961501
0.00197334
-0.00109543
0.0087182
-0.0018521
0.0038867
-0.00243626
0.00319957
-0.0028821
0.00245486
-0.00322686
0.0017452
-0.00343928
0.000923806
-0.00344003
-0.000112194
-0.00312056
-0.00140151
-0.00254407
-0.00262441
-0.00184211
-0.00349752
-0.00112649
-0.00390155
-0.000477057
-0.00381827
6.90707e-05
-0.00330906
0.000529449
-0.00246887
0.000905083
-0.00152725
0.00112181
-0.000634915
0.00130591
0.000205023
0.00225976
0.000735601
0.00216889
0.000102794
0.00199631
-0.000354147
0.00190997
-0.000721356
0.00179861
-0.000825076
0.0016657
-0.0008171
0.00143372
-0.000682239
0.00175724
-0.00032368
0.00193484
-0.000177748
0.00206582
-0.000131139
0.00216673
-0.000101068
0.0022272
-6.06218e-05
0.00222498
2.06428e-06
0.00213234
9.24888e-05
0.00191293
0.000219255
0.00150686
0.000405916
0.00126938
0.000742895
0.000902075
0.00112773
0.000384153
0.00147942
0.00238113
-0.000755907
0.00986178
-0.00132656
0.00445735
-0.00150886
0.00338187
-0.00168702
0.00263303
-0.00185147
0.00190964
-0.00195993
0.00103227
-0.00191077
-0.00016135
-0.00155259
-0.0017597
-0.00105132
-0.00312567
-0.000533475
-0.00401537
-6.92391e-05
-0.00436579
0.000309039
-0.00419655
0.000599933
-0.00359995
0.000852512
-0.00272145
0.00107145
-0.00174619
0.0012785
-0.000841961
0.00158882
-0.000105298
0.00203209
0.000292325
0.0020657
6.91886e-05
0.00199814
-0.00028659
0.00181336
-0.000536574
0.00162496
-0.000636686
0.00144715
-0.00063929
0.00131773
-0.00055282
0.00137602
-0.000381968
0.00146385
-0.000265583
0.00154819
-0.00021548
0.00162972
-0.000182591
0.00170009
-0.000130995
0.00173943
-3.72763e-05
0.00172368
0.000108235
0.0016377
0.000305233
0.0014857
0.000557912
0.00132976
0.000898835
0.00115081
0.00130668
0.000803837
0.0018264
0.00101992
0.00216504
-0.00109509
0.00213612
-0.00179331
0.00071784
-0.00172055
-0.000638609
0.0109411
-0.00101378
0.00483252
-0.000632521
0.00300061
-0.000447089
0.00244759
-0.000381658
0.00184421
-0.000300311
0.000950918
-4.73672e-05
-0.000414294
0.000339396
-0.00214646
0.000696971
-0.00348325
0.000956414
-0.00427482
0.0010989
-0.00450828
0.00114883
-0.00424648
0.00114238
-0.00359351
0.00111883
-0.0026979
0.00110297
-0.00173033
0.00113474
-0.00087373
0.00127142
-0.000241982
0.00148587
7.78772e-05
0.00153699
1.80666e-05
0.00143881
-0.00018841
0.00126411
-0.000361876
0.00108397
-0.000456545
0.000926034
-0.000481359
0.000820402
-0.000447189
0.000809163
-0.00037073
0.000858261
-0.000314682
0.000934258
-0.000291478
0.00102506
-0.000273395
0.00112412
-0.000230055
0.0012214
-0.000134554
0.00129463
3.50028e-05
0.00133193
0.000267934
0.00134744
0.000542402
0.00138161
0.000864656
0.00148218
0.00120611
0.00168565
0.00162292
0.00203668
0.00181401
0.00233686
0.00183593
0.00182986
0.00122484
0.000174732
-0.000763242
0.0121916
-0.000620521
0.0046898
0.000493593
0.0018865
0.000962787
0.0019784
0.00122125
0.00158575
0.00160421
0.000567959
0.00210846
-0.000918551
0.0024451
-0.0024831
0.00257855
-0.00361669
0.00251028
-0.00420655
0.00227627
-0.00427427
0.00193869
-0.0039089
0.00156128
-0.0032161
0.00120216
-0.00233877
0.000898076
-0.00142625
0.000706218
-0.000681873
0.000654349
-0.000190114
0.000705299
2.69263e-05
0.000713247
1.01177e-05
0.000636802
-0.000111966
0.00050919
-0.000234266
0.000368521
-0.000315877
0.000242201
-0.00035504
0.000155715
-0.000360705
0.000132488
-0.000347504
0.000161339
-0.000343534
0.000220899
-0.00035104
0.000301413
-0.00035391
0.000403744
-0.000332387
0.000532842
-0.000263654
0.000685938
-0.000118094
0.000844142
0.000109728
0.00100643
0.000380115
0.00120842
0.000662666
0.00148312
0.000931408
0.00188351
0.00122253
0.00241712
0.0012804
0.00318478
0.00106828
0.0033613
0.00104831
0.00360483
0.00273687
0.00999805
0.00339317
0.0040335
0.00345163
0.00182804
0.0035385
0.00189153
0.00375119
0.00137306
0.00422847
9.06795e-05
0.00469964
-0.00138972
0.00479383
-0.00257729
0.00451835
-0.00334121
0.00396388
-0.00365208
0.00323155
-0.00354194
0.00242575
-0.0031031
0.00162835
-0.0024187
0.000922168
-0.00163259
0.000347259
-0.000851344
-2.67504e-06
-0.000331941
-0.000140995
-5.17945e-05
-0.000155444
4.13738e-05
-0.000163363
1.80363e-05
-0.000215622
-5.97075e-05
-0.000306587
-0.000143302
-0.000412964
-0.000209501
-0.000512353
-0.000255653
-0.000586669
-0.000286389
-0.000624688
-0.000309485
-0.000633926
-0.000334296
-0.000626044
-0.000358923
-0.00060548
-0.000374475
-0.000567353
-0.000370515
-0.000495315
-0.000335693
-0.000358078
-0.000255332
-0.000147793
-0.000100558
0.000103359
0.000128962
0.000388199
0.000377825
0.00070667
0.000612937
0.00108888
0.000840318
0.00150632
0.000862957
0.00189816
0.000676436
0.00120584
0.00174063
0.00509701
0.0105969
0.0146262
0.0125625
0.00389175
0.0112329
0.00322117
0.0103468
0.00225919
0.00954022
0.000897224
0.00853667
-0.00038617
0.00735627
-0.0013969
0.00608135
-0.00206629
0.00476061
-0.00233134
0.00342799
-0.00220932
0.00216229
-0.0018374
0.001007
-0.00126342
5.40646e-05
-0.000679651
-0.000568037
-0.000229244
-0.000861267
-3.8711e-05
-0.000958102
4.50394e-05
-0.000977483
6.07534e-05
-0.000992747
3.32992e-05
-0.00103614
-1.63182e-05
-0.00110864
-7.08041e-05
-0.0011975
-0.000120641
-0.00128902
-0.000164126
-0.00137439
-0.000201027
-0.00145138
-0.000232497
-0.0015268
-0.000258879
-0.00160986
-0.000275861
-0.0017092
-0.000275138
-0.00183445
-0.000245268
-0.00199841
-0.000171732
-0.00221646
-3.7284e-05
-0.00248308
0.000166067
-0.00280713
0.000453005
-0.00327083
0.000841531
-0.00398767
0.00132977
-0.00502881
0.00188147
-0.00651555
0.00234969
-0.00825365
0.00241454
-0.00777033
0.00125731
-0.0023564
0.00895095
0.0055994
0.00747226
0.00469986
0.00707986
0.00265158
0.00672865
0.00124843
0.00611775
0.000224731
0.0052438
-0.000522954
0.00417379
-0.00099628
0.00297657
-0.00113413
0.00168434
-0.000917088
0.000423736
-0.000576798
-0.000615098
-0.000224583
-0.00127495
-1.97982e-05
-0.00156636
6.21657e-05
-0.00168027
7.51925e-05
-0.00170973
7.44977e-05
-0.0017152
6.62281e-05
-0.00173003
4.81238e-05
-0.00176856
2.22158e-05
-0.00183215
-7.21627e-06
-0.0019133
-3.94921e-05
-0.00200427
-7.31626e-05
-0.00210304
-0.000102252
-0.00221108
-0.000124464
-0.00233182
-0.00013814
-0.00246739
-0.00014029
-0.00261668
-0.000125846
-0.00277422
-8.77248e-05
-0.00292766
-1.82932e-05
-0.00306141
9.64617e-05
-0.00317384
0.000278491
-0.00327487
0.000554042
-0.00337642
0.000943078
-0.00348523
0.00143857
-0.00356871
0.00196494
-0.00356704
0.00234802
-0.00330902
0.00215651
-0.00194917
-0.000102543
-0.00422227
-0.000826476
0.00647921
0.000739588
0.0031338
0.00140293
0.00198824
0.00163944
0.00101192
0.00157358
0.000290595
0.00120115
-0.00015053
0.000517707
-0.000312837
-0.000375242
-0.000241179
-0.00125028
-4.20534e-05
-0.00189332
6.62472e-05
-0.00223188
0.00011397
-0.00236153
0.000109855
-0.00238363
8.42603e-05
-0.00237288
6.44416e-05
-0.00235148
5.30991e-05
-0.00233065
4.54044e-05
-0.00231943
3.68984e-05
-0.00232306
2.58456e-05
-0.00234208
1.17991e-05
-0.00237528
-6.29333e-06
-0.00242316
-2.52788e-05
-0.00248393
-4.14885e-05
-0.00255558
-5.28092e-05
-0.00263555
-5.81737e-05
-0.00271973
-5.61145e-05
-0.00280149
-4.40854e-05
-0.00287128
-1.79293e-05
-0.00291657
2.69949e-05
-0.00291668
9.65649e-05
-0.00284633
0.000208139
-0.002671
0.000378713
-0.00235928
0.000631356
-0.00190325
0.00098255
-0.00128893
0.00135061
-0.000299496
0.00135859
0.0011475
0.000709516
0.00164249
-0.000597532
-0.00248814
-0.0120457
-0.0155745
-0.00905483
-0.00589364
-0.00388316
-0.00285268
-0.00254711
-0.00268569
-0.00298865
-0.00322137
-0.0032558
-0.0031823
-0.00306123
-0.00294431
-0.00285297
-0.00278143
-0.00272121
-0.00266864
-0.00262454
-0.00259146
-0.00257242
-0.00257151
-0.00258966
-0.00262413
-0.00267005
-0.00272148
-0.002771
-0.00280867
-0.00282036
-0.00278734
-0.00268495
-0.00247122
-0.00208717
-0.00145073
-0.000463397
0.000891613
0.00225431
0.00296784
0.00237446
)
;

boundaryField
{
    floor
    {
        type            calculated;
        value           nonuniform List<scalar> 
36
(
0
0
0
0
0
0
0
0
0
0
0
0
0
0
0
0
0
0
0
-4.83734e-06
-1.23754e-05
-1.85652e-05
-2.36326e-05
-2.11098e-05
-1.96143e-05
-1.8449e-05
-2.35013e-06
-3.78192e-06
-4.35636e-06
-5.04127e-06
-3.65499e-06
-7.63868e-06
-1.09966e-05
-1.12527e-05
-1.38375e-05
-1.19303e-05
)
;
    }
    ceiling
    {
        type            calculated;
        value           nonuniform List<scalar> 
43
(
-4.18297e-05
-4.11647e-05
-4.04652e-05
-2.73946e-05
-2.22384e-05
-1.85573e-05
-1.49715e-05
-1.19509e-05
-9.88185e-06
-8.45847e-06
-7.62894e-06
-7.25021e-06
-7.10038e-06
-7.07004e-06
-7.07935e-06
-7.09718e-06
-7.12352e-06
-7.1621e-06
-7.20676e-06
-7.23945e-06
-7.2409e-06
-7.20166e-06
-7.12471e-06
-7.02007e-06
-6.89361e-06
-6.74962e-06
-6.5909e-06
-6.41906e-06
-6.23431e-06
-6.03459e-06
-5.81951e-06
-5.58997e-06
-5.34434e-06
-5.07922e-06
-4.78732e-06
-4.3962e-06
-4.10913e-06
-4.01713e-06
-4.14834e-06
-3.5725e-06
6.94242e-06
4.18075e-06
-5.33279e-05
)
;
    }
    sWall
    {
        type            calculated;
        value           uniform -0.00024136;
    }
    nWall
    {
        type            calculated;
        value           nonuniform List<scalar> 6(-5.43113e-05 -6.5425e-05 -6.87943e-05 -8.32962e-05 -9.16487e-05 -0.000110111);
    }
    sideWalls
    {
        type            empty;
        value           nonuniform 0();
    }
    glass1
    {
        type            calculated;
        value           nonuniform List<scalar> 9(-6.04471e-05 -0.000163375 -0.000250385 -0.000324606 -0.000387676 -0.000440738 -0.000487245 -0.000543301 -0.000605828);
    }
    glass2
    {
        type            calculated;
        value           nonuniform List<scalar> 2(-0.000286338 -0.000316918);
    }
    sun
    {
        type            calculated;
        value           uniform 0;
    }
    Table_master
    {
        type            calculated;
        value           nonuniform List<scalar> 9(-1.53639e-07 -1.53789e-07 -1.53839e-07 -1.53869e-07 -1.53889e-07 -1.53902e-07 -1.53906e-07 -1.539e-07 -1.5387e-07);
    }
    Table_slave
    {
        type            calculated;
        value           nonuniform List<scalar> 9(1.5353e-07 1.53515e-07 1.53468e-07 1.5343e-07 1.53407e-07 1.53407e-07 1.53412e-07 1.5345e-07 1.53533e-07);
    }
    inlet
    {
        type            calculated;
        value           uniform -0.0106586;
    }
    outlet
    {
        type            calculated;
        value           nonuniform List<scalar> 2(0.0123288 0.00357001);
    }
}


// ************************************************************************* //
