/*--------------------------------*- C++ -*----------------------------------*\
  =========                 |
  \\      /  F ield         | OpenFOAM: The Open Source CFD Toolbox
   \\    /   O peration     | Website:  https://openfoam.org
    \\  /    A nd           | Version:  6
     \\/     M anipulation  |
\*---------------------------------------------------------------------------*/
FoamFile
{
    version     2.0;
    format      ascii;
    class       volScalarField;
    location    "680";
    object      T;
}
// * * * * * * * * * * * * * * * * * * * * * * * * * * * * * * * * * * * * * //

dimensions      [0 0 0 1 0 0 0];

internalField   nonuniform List<scalar> 
458
(
302.74
302.461
302.448
302.444
302.441
302.438
302.434
302.43
302.423
302.414
302.406
302.402
302.405
302.419
302.462
302.603
302.581
302.574
302.579
302.586
302.591
302.597
302.602
302.608
302.613
302.618
302.623
302.628
302.633
302.638
302.644
302.652
302.675
302.926
302.494
302.469
302.47
302.472
302.472
302.47
302.464
302.45
302.428
302.404
302.389
302.39
302.404
302.425
302.435
302.445
302.466
302.609
302.56
302.556
302.563
302.573
302.577
302.579
302.581
302.583
302.585
302.586
302.588
302.59
302.594
302.598
302.606
302.618
302.658
303.122
302.539
302.499
302.508
302.521
302.531
302.536
302.531
302.507
302.462
302.414
302.382
302.38
302.399
302.42
302.432
302.44
302.459
302.567
302.547
302.549
302.564
302.582
302.583
302.583
302.583
302.584
302.584
302.585
302.585
302.586
302.587
302.592
302.598
302.609
302.652
303.323
302.597
302.531
302.549
302.578
302.606
302.625
302.626
302.586
302.509
302.427
302.375
302.369
302.396
302.424
302.441
302.448
302.456
302.466
302.484
302.512
302.546
302.58
302.61
302.634
302.651
302.664
302.676
302.685
302.692
302.697
302.701
302.703
302.675
302.646
302.628
302.654
303.52
302.672
302.565
302.582
302.625
302.674
302.718
302.73
302.669
302.554
302.437
302.366
302.36
302.393
302.435
302.463
302.473
302.479
302.493
302.518
302.553
302.592
302.631
302.665
302.693
302.715
302.731
302.743
302.752
302.756
302.755
302.751
302.742
302.719
302.686
302.654
302.656
302.746
302.825
302.827
303.699
302.77
302.619
302.61
302.651
302.71
302.785
302.811
302.722
302.572
302.433
302.354
302.35
302.396
302.455
302.499
302.521
302.532
302.553
302.584
302.621
302.661
302.699
302.731
302.757
302.777
302.79
302.8
302.805
302.805
302.799
302.789
302.774
302.752
302.72
302.685
302.67
302.709
302.738
302.78
303.854
302.933
302.763
302.711
302.72
302.765
302.845
302.847
302.728
302.551
302.399
302.324
302.337
302.407
302.492
302.556
302.591
302.612
302.637
302.668
302.704
302.74
302.772
302.799
302.819
302.833
302.841
302.846
302.846
302.843
302.834
302.819
302.801
302.779
302.75
302.719
302.698
302.706
302.719
302.75
304.086
303.398
303.198
303.056
302.981
302.97
302.98
302.873
302.666
302.45
302.306
302.268
302.329
302.441
302.559
302.638
302.681
302.704
302.728
302.756
302.786
302.814
302.838
302.856
302.868
302.875
302.878
302.878
302.875
302.869
302.86
302.846
302.828
302.808
302.787
302.765
302.752
302.759
302.779
302.931
304.415
304.097
303.849
303.608
303.416
303.281
303.074
302.732
302.403
302.196
302.14
302.207
302.36
302.528
302.674
302.738
302.77
302.79
302.811
302.833
302.855
302.873
302.888
302.897
302.902
302.903
302.903
302.9
302.896
302.892
302.888
302.886
302.887
302.892
302.906
302.93
302.965
303.002
303.031
303.098
297.64
299.354
300.409
300.853
301.015
301.196
301.421
301.693
301.982
302.255
302.532
302.707
302.789
302.826
302.846
302.862
302.878
302.893
302.905
302.915
302.921
302.924
302.926
302.926
302.926
302.925
302.925
302.925
302.926
302.928
302.932
302.94
302.954
302.975
303.002
303.03
303.055
303.077
297.997
299.42
300.268
300.711
301.031
301.375
301.741
302.122
302.452
302.654
302.778
302.843
302.874
302.891
302.904
302.915
302.924
302.932
302.937
302.941
302.943
302.945
302.945
302.946
302.946
302.947
302.947
302.948
302.949
302.951
302.954
302.96
302.97
302.985
303.003
303.024
303.024
303.058
299.472
299.432
299.429
300.461
301.097
301.622
302.099
302.434
302.626
302.757
302.839
302.884
302.913
302.931
302.943
302.951
302.957
302.961
302.965
302.967
302.968
302.969
302.969
302.968
302.968
302.967
302.967
302.967
302.966
302.966
302.966
302.966
302.968
302.97
302.975
302.985
302.996
303.004
303.007
303.048
)
;

boundaryField
{
    floor
    {
        type            wallHeatTransfer;
        Tinf            uniform 305.2;
        alphaWall       uniform 0.24;
        value           nonuniform List<scalar> 
36
(
302.774
303.09
303.023
302.98
302.973
302.983
303.006
303.034
303.062
303.088
303.114
303.138
303.162
303.184
303.206
303.229
303.253
303.271
303.321
303.321
303.209
303.148
303.106
303.102
303.156
303.138
302.774
302.69
302.738
302.805
303.09
302.805
303.098
302.759
302.936
302.735
)
;
    }
    ceiling
    {
        type            wallHeatTransfer;
        Tinf            uniform 303.2;
        alphaWall       uniform 0.24;
        value           nonuniform List<scalar> 
43
(
299.702
299.659
299.653
300.61
301.217
301.722
302.179
302.497
302.678
302.801
302.878
302.921
302.95
302.967
302.979
302.987
302.993
302.998
303.002
303.004
303.005
303.006
303.005
303.004
303.003
303.002
303
302.999
302.998
302.996
302.995
302.994
302.994
302.995
302.998
303.006
303.015
303.023
303.027
303.065
304.359
304.062
298.329
)
;
    }
    sWall
    {
        type            wallHeatTransfer;
        Tinf            uniform 315.2;
        alphaWall       uniform 0.36;
        value           uniform 300.885;
    }
    nWall
    {
        type            wallHeatTransfer;
        Tinf            uniform 307.2;
        alphaWall       uniform 0.36;
        value           nonuniform List<scalar> 6(303.635 303.577 303.461 303.669 303.647 303.691);
    }
    sideWalls
    {
        type            empty;
    }
    glass1
    {
        type            wallHeatTransfer;
        Tinf            uniform 315.2;
        alphaWall       uniform 4.3;
        value           nonuniform List<scalar> 9(311.279 310.631 310.219 309.904 309.64 309.398 309.195 309.255 309.479);
    }
    glass2
    {
        type            wallHeatTransfer;
        Tinf            uniform 307.2;
        alphaWall       uniform 4.3;
        value           nonuniform List<scalar> 2(305.543 305.664);
    }
    sun
    {
        type            wallHeatTransfer;
        Tinf            uniform 305.2;
        alphaWall       uniform 0.24;
        value           nonuniform List<scalar> 
14
(
303.001
302.734
302.717
302.704
302.693
302.683
302.673
302.662
302.651
302.64
302.632
302.631
302.643
302.676
)
;
    }
    Table_master
    {
        type            zeroGradient;
    }
    Table_slave
    {
        type            zeroGradient;
    }
    inlet
    {
        type            fixedValue;
        value           uniform 295.15;
    }
    outlet
    {
        type            zeroGradient;
    }
}


// ************************************************************************* //
