/*--------------------------------*- C++ -*----------------------------------*\
  =========                 |
  \\      /  F ield         | OpenFOAM: The Open Source CFD Toolbox
   \\    /   O peration     | Website:  https://openfoam.org
    \\  /    A nd           | Version:  6
     \\/     M anipulation  |
\*---------------------------------------------------------------------------*/
FoamFile
{
    version     2.0;
    format      ascii;
    class       volScalarField;
    location    "43499.9999998749918";
    object      nut;
}
// * * * * * * * * * * * * * * * * * * * * * * * * * * * * * * * * * * * * * //

dimensions      [0 2 -1 0 0 0 0];

internalField   nonuniform List<scalar> 
778
(
0.000894295
0.000953033
0.000949553
0.000990764
0.00102854
0.00106286
0.00109481
0.00112562
0.00115664
0.00118961
0.00122105
0.00125091
0.00128032
0.00131193
0.0013449
0.000632414
0.000905253
0.000912626
0.00089058
0.000853669
0.000804334
0.000755142
0.000709803
0.000668923
0.000632277
0.000599634
0.000570319
0.000543616
0.000518694
0.000494437
0.000469073
0.000448008
0.000405535
0.00131076
0.00258099
0.00226496
0.00261422
0.00286762
0.00313629
0.00340434
0.00365143
0.00385041
0.00396632
0.00403445
0.00400641
0.00380648
0.00331132
0.00241828
0.00147243
0.00140385
0.00134375
0.00113074
0.00192631
0.00267003
0.0031094
0.00313003
0.00247039
0.00211272
0.00186495
0.00167693
0.00152733
0.00139964
0.00128678
0.00118178
0.00107908
0.000986908
0.000907433
0.00102202
0.000514059
0.00166401
0.00360415
0.00267224
0.0038222
0.00427078
0.00465044
0.00499533
0.00529897
0.00555632
0.00575819
0.00595365
0.00615914
0.00634768
0.00645933
0.00638362
0.00584371
0.00427322
0.00164809
0.00142684
0.00305271
0.00425962
0.00483032
0.00439233
0.00115914
0.00100797
0.000891371
0.000800136
0.000727516
0.000668886
0.000621051
0.000582136
0.000551794
0.000606702
0.000713652
0.00112985
0.000584714
0.00200523
0.00485799
0.00255727
0.00429822
0.00496246
0.00531798
0.00557949
0.00577309
0.00591773
0.0060351
0.00620168
0.00648278
0.00689254
0.0074073
0.00792416
0.00817755
0.00767644
0.00572327
0.00164156
0.00380506
0.00565807
0.00659807
0.00682925
0.00582927
0.00132001
0.00120061
0.00110822
0.00103142
0.000965972
0.000907182
0.000851745
0.000796677
0.000737198
0.000688845
0.000714049
0.00122308
0.000643658
0.00234195
0.00643249
0.00258011
0.00408659
0.00510797
0.00541127
0.0055216
0.00552623
0.0054718
0.00542371
0.0054937
0.00576691
0.00626769
0.00697626
0.00779772
0.00855414
0.00903409
0.00902833
0.00810327
0.00824623
0.00843489
0.00846052
0.00828778
0.00775676
0.0061724
0.00533167
0.00475596
0.00428774
0.00382903
0.00338486
0.00295032
0.00251624
0.00207014
0.0015902
0.00121356
0.00121203
0.000958832
0.000767352
0.00101268
0.00096794
0.00267357
0.00819557
0.00303752
0.00344656
0.00489471
0.00523124
0.00520474
0.00501787
0.00475056
0.00453011
0.00452549
0.00481166
0.00538218
0.00620357
0.00716494
0.00812506
0.00894329
0.00946631
0.00956181
0.00946591
0.00929753
0.00905868
0.00875196
0.00836205
0.00779344
0.00724592
0.00674897
0.00626813
0.00574946
0.00519585
0.00460456
0.00397041
0.00328938
0.00256687
0.00191297
0.00143639
0.00111468
0.00125358
0.00217941
0.00115749
0.0030121
0.00982707
0.00404795
0.00282374
0.00439856
0.00494869
0.00488795
0.00458523
0.0041459
0.00375929
0.00374827
0.00410934
0.00476204
0.00567955
0.00672424
0.00775848
0.00864923
0.00928781
0.00958192
0.00955934
0.00934906
0.00903053
0.00866595
0.0083024
0.00795092
0.00762855
0.00732583
0.00700239
0.00661214
0.0061426
0.00558663
0.00494148
0.0042098
0.00341066
0.00263007
0.00190161
0.00139987
0.00125402
0.00221022
0.0013649
0.00330344
0.0110642
0.00552018
0.00268855
0.003485
0.00438762
0.00451341
0.00426439
0.00374562
0.00321899
0.00333856
0.00381589
0.00454527
0.00549051
0.00657471
0.00765717
0.00858138
0.00922432
0.00951689
0.00947928
0.00920805
0.00880778
0.00837732
0.00799565
0.00770147
0.00749132
0.00732754
0.00714932
0.00690162
0.00655495
0.00609547
0.00552038
0.00483558
0.00406229
0.0032596
0.00244658
0.00171502
0.00113575
0.00322049
0.00178908
0.00339328
0.0104839
0.00683647
0.00347638
0.00236276
0.00289664
0.00338909
0.00343022
0.00302908
0.00294459
0.00325073
0.00381163
0.00459946
0.00560098
0.00673663
0.00785222
0.00877332
0.00936694
0.00957614
0.00943358
0.00904039
0.00852447
0.00801279
0.00760471
0.00734566
0.00721844
0.00716083
0.00709241
0.00695022
0.00670005
0.00632822
0.00583331
0.0052223
0.004513
0.00373624
0.00286493
0.00170044
0.00137992
0.00496059
0.00202112
0.00332465
0.00845872
0.00706626
0.00477515
0.00315221
0.00244092
0.00231263
0.00242176
0.00262542
0.0029499
0.0034094
0.00403995
0.00489577
0.00597472
0.00717175
0.00830313
0.00917642
0.00965831
0.0097094
0.00938668
0.00881799
0.00816372
0.00758025
0.00718075
0.00699759
0.00697602
0.00701569
0.00701499
0.00692315
0.00672066
0.00640089
0.00596364
0.00541354
0.004756
0.00396137
0.00282156
0.00136612
0.00225172
0.00509727
0.00207319
0.00311446
0.00723188
0.00683539
0.00546789
0.00420616
0.00338556
0.00298029
0.00288922
0.00305795
0.0033677
0.00381632
0.00448074
0.00542478
0.00660716
0.00786519
0.00897311
0.00972631
0.0100072
0.00981046
0.00923451
0.00845252
0.00767042
0.00707717
0.0067794
0.00674451
0.00684187
0.00694064
0.0069424
0.00684571
0.00664937
0.00634915
0.00594137
0.00542246
0.00476509
0.00379739
0.00225895
0.0014282
0.00283829
0.00515527
0.00207125
0.00283619
0.00652148
0.0065956
0.00579055
0.00492415
0.00427267
0.00388952
0.00375262
0.00378797
0.00397483
0.00438559
0.00512652
0.0062173
0.00752711
0.00881281
0.00981084
0.0103261
0.0102837
0.00973736
0.00884818
0.0078581
0.00703259
0.0065657
0.00647017
0.00655017
0.00668017
0.00676653
0.00674329
0.00663121
0.00643182
0.00613815
0.0057404
0.00521901
0.00447066
0.00308578
0.00156795
0.00182922
0.00321689
0.0048193
0.0020188
0.00258656
0.0058337
0.00629873
0.00591748
0.00536101
0.00489405
0.00458385
0.0044327
0.00438772
0.00454595
0.00506598
0.00603353
0.00735383
0.00877309
0.00997744
0.0107026
0.0108077
0.0102969
0.00931526
0.00811181
0.00702646
0.00632937
0.00601813
0.00597319
0.00605864
0.00618107
0.00626354
0.0062445
0.0061341
0.00593203
0.0056303
0.00521475
0.00463896
0.00368876
0.00216555
0.00150522
0.00221281
0.00338837
0.00425345
0.00194455
0.00259425
0.00578994
0.00643538
0.00598954
0.00553912
0.00517053
0.00490491
0.00473263
0.00472396
0.00510757
0.00602508
0.00739691
0.00894718
0.0103208
0.011202
0.0114012
0.0108929
0.0097935
0.00838523
0.00702477
0.00603736
0.00544691
0.00515737
0.00507843
0.0051315
0.00524088
0.00532948
0.00531964
0.00520223
0.00497452
0.00463417
0.0041829
0.003607
0.00281568
0.00186989
0.00160496
0.00236843
0.00351449
0.00454527
0.00192398
0.00234164
0.0024355
0.00359193
0.00421888
0.00441213
0.00441443
0.00437092
0.00445011
0.00498591
0.0061294
0.00773798
0.00947556
0.0109663
0.0118959
0.012076
0.0114648
0.0102094
0.00854916
0.00696449
0.00572072
0.00487346
0.00437156
0.00412585
0.00403816
0.00404076
0.00408413
0.00411189
0.00405282
0.00387678
0.00358952
0.00321822
0.00281668
0.00244171
0.002113
0.00183383
0.001812
0.00247272
0.00377518
0.00479102
0.00206673
0.000807738
0.00146591
0.00226285
0.00290438
0.00364605
0.00490041
0.00674403
0.00878882
0.0106511
0.0120469
0.0127834
0.0127331
0.0118947
0.0103515
0.00850697
0.00675106
0.00534751
0.00439079
0.0038474
0.0035648
0.00341147
0.00331985
0.00325866
0.00320496
0.00312836
0.00299321
0.00278479
0.00253304
0.00229384
0.00212214
0.00204065
0.00204106
0.00211906
0.0023342
0.00292203
0.00444028
0.00498296
0.00210676
0.00149727
0.0020788
0.00303638
0.00474609
0.00706534
0.00938881
0.0111911
0.0124941
0.0132866
0.013517
0.0130883
0.0119016
0.0101372
0.0081335
0.00628333
0.00487537
0.00402073
0.00357904
0.00334837
0.0032122
0.00312384
0.0030635
0.00301693
0.00296729
0.00289421
0.00278347
0.00264771
0.00252043
0.0024395
0.00242914
0.00249063
0.00261457
0.00280729
0.00312039
0.00369882
0.00511697
0.00539384
0.00214461
0.00275721
0.00666545
0.00612527
0.00548308
0.00698187
0.00932305
0.0113027
0.0126409
0.013348
0.0135276
0.0132668
0.0125304
0.0112805
0.00957328
0.0076454
0.00586349
0.00459937
0.0038992
0.00353902
0.00333468
0.00320894
0.00313761
0.0031109
0.00311771
0.00314121
0.00316009
0.00315482
0.00312082
0.00308332
0.00306277
0.00307331
0.00312175
0.00320616
0.00332092
0.00346934
0.00367922
0.00402077
0.00462713
0.0049216
0.0020485
0.00263901
0.00510051
0.00658869
0.00841291
0.0093492
0.0103226
0.0108947
0.0110386
0.0108318
0.0103326
0.00956684
0.00854963
0.00733496
0.00606957
0.00497518
0.00418579
0.00366249
0.0033287
0.00310682
0.0029627
0.00288742
0.00287845
0.00292948
0.00302622
0.00314562
0.00325889
0.00333902
0.00338028
0.00341373
0.00345753
0.00352119
0.00360817
0.00371832
0.00385215
0.00401661
0.004218
0.00444698
0.00489129
0.00535284
0.002003
0.00247426
0.00211957
0.00210912
0.00217035
0.00222102
0.00215456
0.00202545
0.00187518
0.00172562
0.00158513
0.00145546
0.0013376
0.00123532
0.00115481
0.00110077
0.00107328
0.00106482
0.00106664
0.00107654
0.00109325
0.00111525
0.00114056
0.00116722
0.00119367
0.00121905
0.00124331
0.00126717
0.00129162
0.00131767
0.001347
0.00138068
0.00141921
0.00146274
0.00151146
0.00156658
0.00163321
0.00172483
0.00184955
0.00199979
0.00192229
)
;

boundaryField
{
    floor
    {
        type            nutkWallFunction;
        Cmu             0.09;
        kappa           0.41;
        E               9.8;
        value           nonuniform List<scalar> 
36
(
0.00016058
7.63876e-05
0.000109508
0.000110385
0.000107761
0.000103349
9.7418e-05
9.1461e-05
8.59297e-05
8.09062e-05
7.63715e-05
7.23054e-05
6.86308e-05
6.52636e-05
6.21023e-05
5.90074e-05
5.57509e-05
5.30294e-05
4.74919e-05
4.74919e-05
6.15119e-05
7.04376e-05
7.77831e-05
9.2943e-05
0.000122191
0.000116933
0.00016058
0.000175013
0.000167269
0.000160448
7.63876e-05
0.000160449
0.000135986
0.00019467
0.000169868
0.000193943
)
;
    }
    ceiling
    {
        type            nutkWallFunction;
        Cmu             0.09;
        kappa           0.41;
        E               9.8;
        value           nonuniform List<scalar> 
43
(
0.000284379
0.000246312
0.000245184
0.000251808
0.000257279
0.000250126
0.00023614
0.00021973
0.000203251
0.000187627
0.000173072
0.000159724
0.00014804
0.000138774
0.000132513
0.000129311
0.000128324
0.000128532
0.00012968
0.000131621
0.000134177
0.000137121
0.000140218
0.000143286
0.000146226
0.000149028
0.000151777
0.000154584
0.000157564
0.000160908
0.000164739
0.000169111
0.000174035
0.000179525
0.00018569
0.000193052
0.0002031
0.000216753
0.000233175
0.000224882
0.000270418
0.000280448
0.0001776
)
;
    }
    sWall
    {
        type            nutkWallFunction;
        Cmu             0.09;
        kappa           0.41;
        E               9.8;
        value           nonuniform List<scalar> 9(0.00037389 0.000352084 0.000322983 0.000296626 0.000297439 0.000270508 0.000314364 0.000301917 0.00028448);
    }
    nWall
    {
        type            nutkWallFunction;
        Cmu             0.09;
        kappa           0.41;
        E               9.8;
        value           nonuniform List<scalar> 
14
(
0.00011694
0.000139097
0.000162863
0.000241377
0.000241119
0.000235376
0.000227295
0.000225192
0.000240767
0.000245025
0.000249102
0.000238647
0.000233653
0.000224917
)
;
    }
    sideWalls
    {
        type            empty;
    }
    glass1
    {
        type            nutkWallFunction;
        Cmu             0.09;
        kappa           0.41;
        E               9.8;
        value           nonuniform List<scalar> 9(0.000108246 0.000156881 0.000196734 0.000234346 0.000270788 0.000306137 0.00034175 0.00037207 0.000381371);
    }
    glass2
    {
        type            nutkWallFunction;
        Cmu             0.09;
        kappa           0.41;
        E               9.8;
        value           nonuniform List<scalar> 2(0.000210384 0.000235862);
    }
    sun
    {
        type            nutkWallFunction;
        Cmu             0.09;
        kappa           0.41;
        E               9.8;
        value           nonuniform List<scalar> 
14
(
0.000108205
0.000115177
0.000114765
0.00011963
0.000124069
0.000128085
0.000131812
0.000135393
0.000138988
0.000142796
0.000146417
0.000149846
0.000153214
0.000156824
)
;
    }
    Table_master
    {
        type            nutkWallFunction;
        Cmu             0.09;
        kappa           0.41;
        E               9.8;
        value           nonuniform List<scalar> 9(0.000139268 0.000121649 0.000107852 9.69109e-05 8.80973e-05 8.09054e-05 7.49816e-05 7.01219e-05 6.63055e-05);
    }
    Table_slave
    {
        type            nutkWallFunction;
        Cmu             0.09;
        kappa           0.41;
        E               9.8;
        value           nonuniform List<scalar> 9(0.000157734 0.000144054 0.000133364 0.000124401 0.000116701 0.000109735 0.000103117 9.64932e-05 8.92781e-05);
    }
    inlet
    {
        type            calculated;
        value           uniform 0.000167705;
    }
    outlet
    {
        type            calculated;
        value           nonuniform List<scalar> 2(0.00275721 0.00666545);
    }
}


// ************************************************************************* //
