/*--------------------------------*- C++ -*----------------------------------*\
  =========                 |
  \\      /  F ield         | OpenFOAM: The Open Source CFD Toolbox
   \\    /   O peration     | Website:  https://openfoam.org
    \\  /    A nd           | Version:  6
     \\/     M anipulation  |
\*---------------------------------------------------------------------------*/
FoamFile
{
    version     2.0;
    format      ascii;
    class       surfaceScalarField;
    location    "43499.9999998749918";
    object      phi;
}
// * * * * * * * * * * * * * * * * * * * * * * * * * * * * * * * * * * * * * //

dimensions      [1 0 -1 0 0 0 0];

internalField   nonuniform List<scalar> 
1482
(
-0.00279983
0.00286386
-0.00348419
0.000684362
-0.00414511
0.000660917
-0.00475946
0.000614358
-0.00528113
0.000521666
-0.00569332
0.000412189
-0.00598477
0.000291446
-0.00614237
0.000157607
-0.00614878
6.40874e-06
-0.00597801
-0.000170778
-0.00560009
-0.000377916
-0.00498402
-0.000616071
-0.00405963
-0.000924395
-0.00258058
-0.00147904
-0.00257766
-6.52555e-05
7.01088e-05
0.000777531
-0.000842786
0.00142932
-0.00065179
0.00182806
-0.000398736
0.00204915
-0.00022109
0.00215337
-0.000104224
0.00220073
-4.73566e-05
0.00222351
-2.27828e-05
0.00223316
-9.65268e-06
0.00223395
-7.82264e-07
0.00222681
7.13694e-06
0.00220779
1.90162e-05
0.00216361
4.41813e-05
0.00206112
0.000102497
0.00184503
0.000216088
0.00148866
0.000356366
0.00101892
0.000469737
0.00102536
-0.00204044
0.00507463
-0.00290869
0.00155261
-0.00369473
0.00144696
-0.00434603
0.00126566
-0.00488359
0.00105922
-0.00531266
0.00084126
-0.00563142
0.000610207
-0.00583304
0.000359221
-0.0059068
8.01698e-05
-0.00584486
-0.000232718
-0.00564143
-0.000581351
-0.00528521
-0.000972291
-0.00477504
-0.00143456
-0.00428899
-0.00196509
-0.00470493
-0.00216173
-0.003118
-0.00158149
-0.00163397
-0.00147834
-0.00161913
0.00131717
-0.00123685
0.00166026
-0.00118587
0.0019106
-0.000902134
0.00210048
-0.000588621
0.00220668
-0.000327286
0.00221535
-0.000112895
0.00221743
-4.94384e-05
0.00221914
-2.44918e-05
0.00222015
-1.06577e-05
0.00222014
-7.78791e-07
0.00221874
8.54042e-06
0.00221451
2.32518e-05
0.00220186
5.68262e-05
0.00213999
0.000164373
0.00189064
0.000465435
0.00146211
0.0007849
0.000900407
0.00103144
0.00194266
-0.00148832
0.00682087
-0.00235934
0.00242362
-0.0031295
0.00221713
-0.00371396
0.00185011
-0.00418488
0.00153015
-0.00455659
0.00121297
-0.00483087
0.000884479
-0.00500443
0.000532788
-0.00507087
0.000146603
-0.00502109
-0.000282497
-0.00484437
-0.00075807
-0.00453333
-0.00128333
-0.00411884
-0.00184905
-0.00372164
-0.00236229
-0.00330156
-0.0025818
-0.00237033
-0.00251273
-0.00127613
-0.00257254
-0.00288242
0.00114867
-0.00237106
0.00165138
-0.00168859
0.00194887
-0.00119962
0.00214039
-0.000780146
0.00216802
-0.000354917
0.00205528
0.002006
0.00198166
0.00197116
0.00197053
0.00197923
0.00200263
0.00205961
0.00222414
0.00186551
0.000824066
0.00141817
0.00123223
0.000800568
0.00164904
0.00276926
-0.00110613
0.00825822
-0.00192816
0.00324565
-0.00257037
0.00285934
-0.0030309
0.00231065
-0.00339865
0.0018979
-0.00368765
0.00150197
-0.00390089
0.00109772
-0.0040365
0.000668399
-0.00408695
0.000197046
-0.00403902
-0.000330424
-0.00388047
-0.000916623
-0.00360725
-0.00155655
-0.00324207
-0.00221423
-0.00282081
-0.00278356
-0.00228213
-0.00312047
-0.00156317
-0.00323168
-0.000875627
-0.00326008
-0.000697408
-0.00306064
0.00143874
-0.0021207
0.00137251
-0.00230483
0.00168862
-0.00200469
0.0020013
-0.0015123
0.00226766
-0.00104651
0.00254476
-0.000632014
0.00285698
-0.000312379
0.00302319
-0.00016636
0.00308734
-6.42988e-05
0.00306988
1.73026e-05
0.00297957
9.01557e-05
0.00281738
0.000162034
0.00257548
0.000241746
0.00223095
0.000344381
0.00172661
0.000504183
0.00159041
0.000960268
0.00126316
0.00155948
0.0007379
0.0021743
0.00354147
-0.000803829
0.00945524
-0.00158008
0.00402191
-0.00204891
0.00332817
-0.0023648
0.00262653
-0.00260935
0.00214245
-0.00279507
0.00168769
-0.00292695
0.0012296
-0.00300571
0.000747155
-0.00302477
0.000216107
-0.0029675
-0.000387691
-0.00282069
-0.00106344
-0.00257749
-0.00179974
-0.00224459
-0.00254713
-0.00182915
-0.003199
-0.00132478
-0.00362483
-0.000749104
-0.00380736
-0.000218578
-0.0037906
0.000258532
-0.00353775
0.0011198
-0.00298197
0.00148613
-0.00267117
0.00174551
-0.00226407
0.0019982
-0.00176499
0.0022282
-0.00127651
0.00244248
-0.000846286
0.00264292
-0.000512829
0.00275234
-0.000275775
0.0027881
-0.000100062
0.00276194
4.34646e-05
0.00268029
0.000171807
0.00254566
0.000296666
0.00235685
0.000430555
0.00211144
0.000589788
0.00181739
0.000798241
0.00161154
0.00116611
0.00146944
0.00170158
0.00128865
0.00235509
0.00227027
0.00255986
0.00131513
0.000990071
0.00189225
-0.000548417
0.00201127
-0.00057588
0.0104775
-0.00132488
0.0047709
-0.00158469
0.00358798
-0.0017508
0.00279264
-0.00186499
0.00225664
-0.00193669
0.00175939
-0.00197236
0.00126526
-0.00197627
0.000751065
-0.00194524
0.000185081
-0.00185751
-0.00047542
-0.00170334
-0.0012176
-0.00147291
-0.00203018
-0.00116918
-0.00285086
-0.000798037
-0.00357014
-0.00037924
-0.00404363
6.0379e-05
-0.00424698
0.000465242
-0.00419547
0.000839519
-0.00391202
0.00129073
-0.00343318
0.00158988
-0.00297032
0.00179356
-0.00246774
0.00196526
-0.00193669
0.00211701
-0.00142827
0.00225141
-0.000980687
0.00235587
-0.000617289
0.00241355
-0.000333453
0.00242425
-0.000110769
0.00239326
7.44611e-05
0.00232539
0.000239668
0.0022245
0.000397557
0.00209462
0.000560435
0.00194272
0.000741695
0.00178302
0.000957933
0.00169131
0.00125783
0.00174591
0.00164698
0.00195217
0.00214884
0.00218782
0.0023242
0.00169935
0.00147855
0.000784949
0.000365988
0.0028939
-0.000543369
0.0115131
-0.00124365
0.00547118
-0.00119219
0.00353652
-0.00120081
0.00280126
-0.00119342
0.00224926
-0.00116024
0.00172621
-0.0011034
0.00120843
-0.0010286
0.000676262
-0.000930467
8.69493e-05
-0.000781764
-0.000624123
-0.000592883
-0.00140648
-0.00035341
-0.00226965
-7.04756e-05
-0.00313379
0.000233524
-0.00387414
0.00054283
-0.00435293
0.00083751
-0.00454165
0.00110019
-0.00445814
0.00133354
-0.00414537
0.00156556
-0.0036652
0.00172556
-0.00313032
0.0018258
-0.00256797
0.00189604
-0.00200693
0.00195191
-0.00148413
0.00199849
-0.00102727
0.00203047
-0.000649266
0.00204217
-0.000345159
0.00203029
-9.88807e-05
0.00199562
0.000109131
0.0019413
0.000293984
0.00187115
0.000467703
0.00179037
0.000641214
0.00170741
0.000824662
0.00163702
0.00102832
0.0016218
0.00127305
0.00170518
0.0015636
0.00190703
0.00194698
0.00214684
0.0020844
0.00215425
0.00147113
0.00162893
0.000891311
0.00462587
-0.000483511
0.0125321
-0.00105157
0.00603925
-0.000697676
0.00318262
-0.000637151
0.00274073
-0.000569087
0.0021812
-0.000464756
0.00162187
-0.000336119
0.00107979
-0.000185349
0.000525492
3.58651e-06
-0.000101986
0.000221473
-0.000842009
0.000460781
-0.00164579
0.000717924
-0.00252679
0.000974237
-0.00339011
0.00120241
-0.00410232
0.00140135
-0.00455188
0.00156237
-0.00470267
0.0016802
-0.00457597
0.00175963
-0.0042248
0.00181309
-0.00371866
0.00182365
-0.00314087
0.0017994
-0.00254372
0.00175918
-0.00196671
0.00171777
-0.00144272
0.00168255
-0.00099205
0.00165346
-0.000620171
0.00162661
-0.000318313
0.00159728
-6.95536e-05
0.00156336
0.000143052
0.00152521
0.00033214
0.00148426
0.000508645
0.0014438
0.000681681
0.00141009
0.000858367
0.00139398
0.00104443
0.00141825
0.00124878
0.00150872
0.00147313
0.00170929
0.00174642
0.00196844
0.00182525
0.00206575
0.00137382
0.00164489
0.00131219
0.00663739
0.00297611
0.0101432
0.00202062
0.00699473
0.000867866
0.00433537
0.000369582
0.00323902
0.000212611
0.00233817
0.000268763
0.00156572
0.000422311
0.000926242
0.000635803
0.000312
0.000894706
-0.000360889
0.00115903
-0.00110633
0.00143702
-0.00192379
0.00170355
-0.00279332
0.00192925
-0.00361581
0.0020899
-0.00426298
0.00217963
-0.00464162
0.00220114
-0.00472419
0.00216329
-0.00453813
0.0020798
-0.00414131
0.00196589
-0.00360475
0.00182712
-0.0030021
0.00167554
-0.00239214
0.00152788
-0.00181905
0.00139862
-0.00131346
0.0012958
-0.000889232
0.00122059
-0.000544967
0.00116826
-0.000265982
0.00113169
-3.29775e-05
0.00110578
0.00016896
0.00108726
0.000350652
0.00107413
0.000521779
0.00106664
0.000689173
0.00106786
0.000857146
0.00108414
0.00102815
0.0011279
0.00120501
0.00121413
0.0013869
0.00137327
0.00158727
0.00156433
0.00163419
0.0016214
0.00131675
0.000269694
0.00266394
0.00729265
0.00403044
0.00625299
0.00366621
0.00735897
0.00254079
0.00546079
0.00188765
0.00389216
0.00153107
0.00269475
0.00138611
0.00171068
0.00141967
0.000892681
0.00159366
0.000138007
0.00184517
-0.000612395
0.00212168
-0.00138284
0.00240078
-0.00220289
0.0026452
-0.00303774
0.00281333
-0.00378395
0.00287825
-0.00432791
0.0028367
-0.00460008
0.00270254
-0.00459003
0.00249811
-0.00433371
0.00224779
-0.00389099
0.00197435
-0.00333131
0.00169492
-0.00272266
0.00142658
-0.00212381
0.00118705
-0.00157951
0.000990836
-0.00111725
0.00084388
-0.000742276
0.000744986
-0.000446074
0.000685455
-0.000206451
0.000654568
-2.09043e-06
0.000643805
0.000179723
0.00064652
0.000347937
0.000658062
0.000510237
0.000676255
0.00067098
0.000700913
0.000832488
0.000733384
0.000995683
0.000776714
0.00116168
0.000829271
0.00133435
0.0008597
0.00155684
0.000579061
0.00191479
-0.000683733
0.00257942
-0.00196917
0.00394943
0.00542762
0.00240921
0.0040083
0.0033039
0.00646428
0.00324781
0.00551687
0.00303699
0.00410298
0.00284582
0.00288591
0.00272234
0.00183415
0.00270817
0.000906847
0.0027967
4.94744e-05
0.00295805
-0.000773744
0.00316803
-0.00159282
0.00338481
-0.00241968
0.00354841
-0.00320135
0.00360418
-0.00383973
0.00352554
-0.00424928
0.00331796
-0.00439251
0.00300761
-0.0042797
0.00262902
-0.00395512
0.00221569
-0.00347766
0.00179729
-0.00291291
0.00139755
-0.00232293
0.00103794
-0.00176419
0.00073769
-0.00127926
0.000510332
-0.000889889
0.00035368
-0.000585623
0.000258996
-0.000351391
0.000210117
-0.000157572
0.000193894
1.41332e-05
0.000200213
0.000173404
0.000221169
0.00032698
0.000251889
0.000479517
0.000288896
0.000633972
0.000329115
0.000792269
0.000369303
0.000955495
0.000406375
0.00112461
0.000433857
0.00130687
0.000386816
0.00160387
7.91931e-05
0.00222221
-0.000311307
0.00296952
-0.000492858
0.00413076
0.00505026
0.00145683
0.00274571
0.00274826
0.00517285
0.00343248
0.00483265
0.0037185
0.00381696
0.00381679
0.00278762
0.00384458
0.00180636
0.00388027
0.000871159
0.00394898
-1.92366e-05
0.00405855
-0.00088332
0.00419803
-0.0017323
0.00431597
-0.00253762
0.0043418
-0.00322717
0.00422408
-0.00372202
0.0039507
-0.00397592
0.0035442
-0.00398602
0.00304452
-0.00378003
0.00249582
-0.00340643
0.00193706
-0.0029189
0.00140256
-0.00237841
0.00091949
-0.00183986
0.000514516
-0.00135922
0.000205279
-0.000970025
-3.9229e-06
-0.000680687
-0.000130156
-0.000459389
-0.000197969
-0.000283578
-0.00022775
-0.000127792
-0.000230695
1.70779e-05
-0.000213679
0.000156388
-0.000181509
0.00029481
-0.000138045
0.000436052
-8.7637e-05
0.000583564
-3.62424e-05
0.000740874
7.34719e-06
0.000911905
3.02414e-05
0.00110172
5.93822e-06
0.00133117
-0.000154026
0.00176381
-0.000516641
0.00258459
-0.000793011
0.00324546
-0.000744516
0.00408188
0.00443436
0.00217151
0.000800161
0.00294396
0.0044004
0.00359479
0.00418181
0.00416504
0.0032467
0.00449263
0.00246002
0.00466665
0.00163234
0.00478312
0.000754691
0.00488744
-0.000123561
0.00499331
-0.000989186
0.00507065
-0.00180963
0.0050538
-0.00252076
0.00488272
-0.00305608
0.00453498
-0.00337429
0.00402956
-0.00347051
0.00341159
-0.00336807
0.00273224
-0.00310068
0.00204068
-0.00271488
0.00137551
-0.00225373
0.000776222
-0.00177913
0.00027009
-0.00133372
-0.000106986
-0.000982139
-0.000352723
-0.000724285
-0.000496662
-0.000536746
-0.000575785
-0.000380266
-0.000618171
-0.000241192
-0.00063506
-0.000110904
-0.000631309
1.33265e-05
-0.000609281
0.000134359
-0.000570712
0.00025624
-0.000518328
0.000383667
-0.000457118
0.000522353
-0.000395732
0.000679488
-0.000349124
0.000865297
-0.000345399
0.001098
-0.000439695
0.00142551
-0.000703416
0.00202769
-0.00123424
0.00311554
-0.00214555
0.00415671
-0.002285
0.00422116
0.00229257
-0.00157514
0.00262047
0.00112054
0.00170472
0.00335231
0.00195004
0.00435508
0.00224393
0.00485906
0.00195604
0.0051735
0.0013179
0.00540128
0.000526915
0.00557885
-0.000301119
0.00567767
-0.00108799
0.00563544
-0.00176736
0.00540112
-0.00228642
0.00496296
-0.00261791
0.00434873
-0.00276007
0.00361148
-0.00273326
0.00281185
-0.00256844
0.00200061
-0.00228945
0.00122749
-0.00194176
0.000524586
-0.00155083
-5.7757e-05
-0.00119679
-0.000478419
-0.000913059
-0.000738138
-0.000722415
-0.000886275
-0.00057614
-0.000971527
-0.000451488
-0.00101951
-0.000332285
-0.00104516
-0.000215536
-0.0010537
-0.000102374
-0.00104588
5.50703e-06
-0.00102066
0.000109133
-0.000977087
0.000212669
-0.000916269
0.000322848
-0.000842419
0.000448502
-0.000764155
0.000601222
-0.000696405
0.000797543
-0.000663884
0.00106548
-0.000703175
0.00146487
-0.000809679
0.00213448
-0.000940859
0.0032472
-0.00144583
0.00466209
-0.00169251
0.00446827
0.000756959
0.00288222
0.00457176
0.00487256
0.00164924
0.00535952
0.00175697
0.00559612
0.00171944
0.00582723
0.0010868
0.00601418
0.000339977
0.00608034
-0.00036724
0.00595405
-0.000961654
0.00560156
-0.00141483
0.00503511
-0.00171994
0.00430136
-0.00188415
0.00345841
-0.00191711
0.00256535
-0.00184021
0.00167844
-0.00168153
0.000832199
-0.00144321
7.20336e-05
-0.0011816
-0.000539616
-0.000939179
-0.000961929
-0.000774468
-0.0012172
-0.00065778
-0.00136689
-0.000572703
-0.00145192
-0.000491092
-0.00150159
-0.000401806
-0.00153029
-0.000303588
-0.00154474
-0.000201092
-0.00154686
-0.000100268
-0.00153573
-5.63877e-06
-0.00150865
8.20449e-05
-0.00146263
0.000166647
-0.00139638
0.000256593
-0.00131128
0.000363403
-0.00121162
0.000501555
-0.00110384
0.000689746
-0.000993126
0.000954718
-0.000870741
0.00134247
-0.000673875
0.00193777
-0.000260538
0.0028343
0.000329027
0.00407293
0.000830194
0.00396759
0.00174917
0.00793106
0.00536646
0.0058112
0.00387681
0.0055636
0.00196704
0.00563574
0.00101467
0.00560134
0.000374421
0.00535928
-0.000125124
0.00489706
-0.000499386
0.00425426
-0.000771996
0.00348402
-0.000949685
0.00263928
-0.00103941
0.0017612
-0.00103903
0.000887984
-0.000966998
5.73176e-05
-0.000850867
-0.000666505
-0.000719391
-0.00122222
-0.000625885
-0.00159943
-0.000561961
-0.00184013
-0.000533746
-0.00198321
-0.000514664
-0.00207038
-0.00048549
-0.00212563
-0.000435812
-0.0021615
-0.000365916
-0.00218384
-0.000281261
-0.00219545
-0.000189516
-0.00219733
-9.84364e-05
-0.00218893
-1.4079e-05
-0.00216781
6.09076e-05
-0.00213036
0.000129194
-0.00207268
0.000198918
-0.00199046
0.000281203
-0.00187782
0.000388912
-0.001726
0.000537867
-0.0015205
0.000749094
-0.00122865
0.00105043
-0.000768517
0.0014775
-1.70607e-05
0.0020829
0.00101198
0.00304413
0.00152332
0.00345656
0.00344347
0.00408949
0.00152352
0.00449137
0.00347492
0.00372474
0.00273368
0.00322815
0.00151131
0.00288891
0.000713725
0.00252641
0.000237421
0.00208049
-5.34476e-05
0.00153862
-0.000230122
0.00091931
-0.000330392
0.000239963
-0.000360076
-0.000460058
-0.000339022
-0.00111898
-0.000308089
-0.00168116
-0.000288707
-0.00211081
-0.000289749
-0.00241332
-0.000323362
-0.00260581
-0.000369433
-0.00272873
-0.000410766
-0.00281288
-0.000430431
-0.00287679
-0.000421514
-0.00292811
-0.000384451
-0.0029694
-0.000324627
-0.00300098
-0.000249728
-0.0030225
-0.000168078
-0.00303377
-8.72796e-05
-0.00303545
-1.24812e-05
-0.00302784
5.32467e-05
-0.00300737
0.000108724
-0.00296829
0.000159901
-0.00290127
0.000214258
-0.00279191
0.000279619
-0.00262031
0.000366248
-0.00236016
0.000488799
-0.00197289
0.000662891
-0.00139189
0.000896126
-0.000494854
0.0011855
0.000894845
0.00165431
0.00161582
0.00273556
0.0052379
-0.00263507
-0.00680933
-0.00742947
-0.00747838
-0.00375596
-0.00214994
-0.00168275
0.00140174
-0.000768444
0.00181941
-0.000565654
0.00130855
-0.000640697
0.000788792
-0.000822541
0.000419274
-0.00106139
0.000185405
-0.00135175
6.02227e-05
-0.00169745
1.52859e-05
-0.00207539
1.78325e-05
-0.00245076
3.63248e-05
-0.00279737
3.84835e-05
-0.00308967
3.57736e-06
-0.00330046
-7.89465e-05
-0.00343214
-0.000191627
-0.00351459
-0.000286891
-0.00357793
-0.000347316
-0.00363772
-0.000370528
-0.00369883
-0.000360325
-0.00376073
-0.000322529
-0.00382129
-0.000264116
-0.00387812
-0.000193012
-0.00392842
-0.000117946
-0.00396808
-4.77993e-05
-0.00398957
8.85053e-06
-0.00398897
5.25541e-05
-0.00396958
8.9334e-05
-0.00393238
0.000122789
-0.00387383
0.000155874
-0.00378504
0.000191009
-0.00365091
0.000232273
-0.00344841
0.000286365
-0.0031363
0.000350695
-0.00263441
0.00039397
-0.00190129
0.000451963
-0.00120637
0.000958886
-0.000650137
0.00217887
0.00478227
-0.00738127
0.00102561
-0.00814659
-0.006713
-0.00719228
-0.0031042
-0.00566794
-0.000122549
-0.00457505
0.00072656
-0.00398369
0.000717216
-0.00372448
0.000529578
-0.00365721
0.000351975
-0.00369816
0.000226308
-0.00379145
0.000153446
-0.00389588
0.000119647
-0.00398415
0.000106043
-0.00404247
9.45907e-05
-0.00407456
7.05413e-05
-0.00409691
2.59441e-05
-0.00412584
-4.99555e-05
-0.00417307
-0.000144294
-0.00424107
-0.000218751
-0.00432849
-0.00025976
-0.00442927
-0.000269639
-0.0045344
-0.000255139
-0.00463407
-0.000222887
-0.00471981
-0.000178492
-0.00478601
-0.000127012
-0.0048302
-7.39956e-05
-0.00485226
-2.59843e-05
-0.00485307
9.4513e-06
-0.00482721
2.65645e-05
-0.00477736
3.9449e-05
-0.00470608
5.15697e-05
-0.00461233
6.22658e-05
-0.00448983
6.87264e-05
-0.00432511
6.77972e-05
-0.00409684
5.83421e-05
-0.00377892
3.2967e-05
-0.00332198
-6.28134e-05
-0.00251822
-0.000351677
-0.000952585
-0.000606731
-3.81456e-05
0.00126419
0.00495108
0.00156743
-0.0050809
-0.00812207
-0.00818543
-0.00740482
-0.00664137
-0.00607224
-0.00568544
-0.00542728
-0.00524358
-0.00509423
-0.00495828
-0.00483306
-0.00473099
-0.0046728
-0.0046902
-0.00480204
-0.00498877
-0.00521713
-0.0054561
-0.00568127
-0.00587476
-0.00602424
-0.00612245
-0.00616773
-0.00616501
-0.00612687
-0.00607171
-0.00600393
-0.00592446
-0.00583496
-0.00573985
-0.00564671
-0.0055642
-0.00550839
-0.00554984
-0.0058818
-0.00647049
-0.00518978
)
;

boundaryField
{
    floor
    {
        type            calculated;
        value           nonuniform List<scalar> 
36
(
0
0
0
0
0
0
0
0
0
0
0
0
0
0
0
0
0
0
0
-6.43892e-06
-1.68851e-05
-2.60352e-05
-3.43141e-05
-3.49352e-05
-2.87009e-05
-2.86759e-05
-2.91996e-06
-5.44148e-06
-5.68772e-06
-5.90799e-06
-4.85361e-06
-8.93877e-06
-1.02126e-05
-1.28339e-05
-1.44574e-05
-1.5445e-05
)
;
    }
    ceiling
    {
        type            calculated;
        value           nonuniform List<scalar> 
43
(
-5.78868e-05
-6.46079e-05
-6.29598e-05
-5.91387e-05
-5.40167e-05
-4.62263e-05
-3.95816e-05
-3.48831e-05
-3.19335e-05
-3.03514e-05
-2.97914e-05
-2.99869e-05
-3.0675e-05
-3.15321e-05
-3.22142e-05
-3.24821e-05
-3.23313e-05
-3.18962e-05
-3.12791e-05
-3.06003e-05
-2.99762e-05
-2.94888e-05
-2.91691e-05
-2.90008e-05
-2.89358e-05
-2.891e-05
-2.88516e-05
-2.86894e-05
-2.83641e-05
-2.78407e-05
-2.71105e-05
-2.61843e-05
-2.50851e-05
-2.38398e-05
-2.24719e-05
-2.09977e-05
-1.94296e-05
-1.78772e-05
-1.65458e-05
-1.62234e-05
1.93404e-05
1.51873e-05
-0.000246554
)
;
    }
    sWall
    {
        type            calculated;
        value           nonuniform List<scalar> 9(-0.000140237 -0.000164519 -0.000194244 -0.000225959 -0.000245164 -0.000281097 -0.000423728 -0.000453615 -0.000483909);
    }
    nWall
    {
        type            calculated;
        value           nonuniform List<scalar> 
14
(
-9.03496e-05
-9.76736e-05
-0.000103023
-0.000104071
-0.000115457
-0.000128644
-0.00014326
-0.000156526
-0.000161627
-0.000170798
-0.000178683
-0.000194674
-0.000207333
-0.000222809
)
;
    }
    sideWalls
    {
        type            empty;
        value           nonuniform 0();
    }
    glass1
    {
        type            calculated;
        value           nonuniform List<scalar> 9(-6.40348e-05 -0.000170322 -0.000257926 -0.000331211 -0.000393197 -0.000446404 -0.000492218 -0.0005355 -0.000587178);
    }
    glass2
    {
        type            calculated;
        value           nonuniform List<scalar> 2(-0.000366628 -0.000385483);
    }
    sun
    {
        type            calculated;
        value           uniform 0;
    }
    Table_master
    {
        type            calculated;
        value           nonuniform List<scalar> 9(-1.53995e-07 -1.54112e-07 -1.54144e-07 -1.54164e-07 -1.54177e-07 -1.54182e-07 -1.5418e-07 -1.54166e-07 -1.54113e-07);
    }
    Table_slave
    {
        type            calculated;
        value           nonuniform List<scalar> 9(1.53663e-07 1.5372e-07 1.53719e-07 1.53736e-07 1.53757e-07 1.53801e-07 1.53868e-07 1.53962e-07 1.54089e-07);
    }
    inlet
    {
        type            calculated;
        value           uniform -0.0116483;
    }
    outlet
    {
        type            calculated;
        value           nonuniform List<scalar> 2(0.00986818 0.0122728);
    }
}


// ************************************************************************* //
