/*--------------------------------*- C++ -*----------------------------------*\
  =========                 |
  \\      /  F ield         | OpenFOAM: The Open Source CFD Toolbox
   \\    /   O peration     | Website:  https://openfoam.org
    \\  /    A nd           | Version:  6
     \\/     M anipulation  |
\*---------------------------------------------------------------------------*/
FoamFile
{
    version     2.0;
    format      ascii;
    class       volScalarField;
    location    "37299.9999986118855";
    object      alphat;
}
// * * * * * * * * * * * * * * * * * * * * * * * * * * * * * * * * * * * * * //

dimensions      [1 -1 -1 0 0 0 0];

internalField   nonuniform List<scalar> 
778
(
0.00104096
0.00111051
0.00110652
0.00115457
0.00119862
0.00123863
0.00127589
0.00131182
0.00134799
0.00138643
0.00142309
0.00145792
0.00149222
0.0015291
0.00156758
0.000736974
0.0010553
0.0010639
0.00103819
0.000995145
0.00093763
0.00088029
0.000827437
0.000779775
0.000737043
0.000698978
0.000664794
0.000633657
0.000604597
0.000576314
0.00054674
0.00052218
0.000472631
0.00152463
0.00300709
0.00263917
0.00304613
0.00334141
0.00365449
0.00396687
0.00425485
0.00448675
0.00462187
0.00470136
0.00466885
0.00443608
0.00385929
0.00281871
0.00171635
0.00163649
0.00156646
0.00131827
0.00224587
0.0031129
0.00362503
0.00364899
0.00288011
0.00246308
0.0021742
0.00195501
0.00178064
0.00163178
0.0015002
0.00137778
0.00125802
0.00115054
0.00105785
0.00119147
0.00059914
0.00193408
0.0041984
0.00311341
0.00445307
0.00497554
0.00541771
0.00581939
0.00617305
0.00647281
0.00670798
0.00693584
0.00717559
0.00739585
0.00752678
0.00743951
0.00681107
0.00498114
0.00192135
0.00166365
0.0035596
0.00496677
0.00563192
0.00512095
0.0013514
0.00117512
0.00103917
0.00093281
0.000848156
0.000779813
0.000724052
0.000678687
0.000643311
0.000707345
0.000832035
0.0013174
0.0006815
0.00232901
0.00565769
0.0029791
0.00500698
0.00578032
0.00619402
0.00649822
0.00672337
0.00689158
0.00702816
0.00722232
0.00755021
0.00802845
0.00862957
0.00923359
0.00953066
0.00894805
0.00667227
0.00191392
0.00443669
0.00659771
0.00769373
0.00796297
0.00679662
0.00153906
0.0013998
0.00129205
0.0012025
0.00112618
0.00105764
0.000993002
0.000928799
0.000859446
0.000803089
0.000832526
0.00142639
0.000750174
0.00271823
0.00748936
0.00300529
0.00475987
0.00594883
0.00630135
0.00642914
0.0064339
0.00637005
0.00631379
0.00639535
0.00671396
0.00729822
0.00812534
0.00908476
0.00996879
0.0105304
0.0105253
0.00944766
0.00961487
0.00983518
0.00986508
0.00966342
0.0090439
0.0071963
0.00621591
0.00554459
0.00499855
0.00446371
0.00394587
0.00343927
0.00293322
0.00241318
0.00185364
0.00141449
0.00141306
0.00111757
0.000894491
0.00118315
0.00112903
0.00310113
0.00953923
0.00353751
0.00401397
0.0056997
0.00609068
0.00605891
0.00584053
0.00552868
0.00527168
0.00526625
0.00559975
0.00626502
0.00722354
0.00834614
0.00946792
0.0104243
0.0110358
0.0111482
0.0110369
0.0108408
0.0105622
0.0102044
0.00974946
0.00908618
0.0084476
0.00786807
0.00730726
0.00670244
0.00605692
0.00536752
0.0046282
0.00383427
0.00299194
0.00222939
0.0016739
0.00129887
0.00146324
0.00254698
0.00134928
0.00349184
0.0114344
0.00471339
0.00328826
0.0051215
0.00576107
0.00568938
0.00533607
0.00482398
0.00437359
0.0043606
0.00478106
0.00554181
0.00661225
0.00783204
0.00904028
0.0100812
0.0108276
0.0111715
0.0111456
0.0109005
0.010529
0.0101037
0.00967959
0.0092696
0.00889361
0.00854059
0.00816334
0.00770821
0.00716065
0.00651236
0.00576015
0.00490712
0.00397539
0.00306493
0.00221508
0.00163036
0.00146245
0.00258499
0.0015924
0.00382758
0.0128675
0.00642547
0.00313028
0.00405758
0.00510772
0.00525321
0.00496247
0.00435818
0.00374461
0.00388341
0.00443906
0.0052891
0.0063919
0.00765789
0.00892254
0.0100025
0.0107538
0.0110957
0.011052
0.0107356
0.0102687
0.00976663
0.00932151
0.00897845
0.00873343
0.00854248
0.00833465
0.00804576
0.00764146
0.00710562
0.00643505
0.00563663
0.00473493
0.00379834
0.0028485
0.00199378
0.00132335
0.00378981
0.00209156
0.00392889
0.0121743
0.00794888
0.00404526
0.00275026
0.00337198
0.00394478
0.00399192
0.00352444
0.00342526
0.00378095
0.00443389
0.00535231
0.0065212
0.0078477
0.00915127
0.0102275
0.0109209
0.011165
0.0109984
0.0105395
0.00993769
0.00934103
0.00886524
0.00856327
0.00841503
0.00834798
0.00826828
0.00810251
0.00781079
0.00737719
0.00680012
0.00608774
0.00526052
0.00435381
0.0033354
0.00196816
0.00161617
0.0058902
0.00235405
0.00384954
0.00981261
0.00820728
0.00555148
0.00366662
0.0028399
0.00269093
0.00281785
0.00305401
0.00343064
0.00396489
0.00469943
0.00569799
0.00695824
0.0083572
0.00967946
0.0106996
0.0112617
0.0113205
0.0109431
0.0102794
0.00951634
0.00883617
0.00837052
0.00815708
0.0081321
0.00817856
0.00817795
0.00807104
0.00783506
0.00746234
0.00695273
0.0063116
0.00554483
0.00461963
0.0033049
0.00158697
0.00262742
0.00600127
0.00241825
0.00360606
0.00838561
0.00793398
0.00635193
0.00488889
0.00393622
0.00346539
0.00335939
0.00355505
0.00391492
0.00443736
0.00521275
0.00631586
0.00769841
0.00916956
0.0104644
0.0113434
0.0116696
0.011438
0.0107647
0.00985227
0.00894048
0.00824904
0.00790196
0.00786146
0.00797539
0.00809102
0.00809323
0.00798075
0.00775205
0.00740235
0.00692757
0.00632313
0.0055556
0.00443666
0.0026929
0.00165559
0.0032583
0.0062136
0.00242491
0.00328348
0.00755961
0.0076521
0.0067226
0.00571946
0.00496412
0.00451945
0.00436021
0.00440125
0.00461934
0.00509964
0.00596658
0.00724333
0.00877651
0.0102805
0.0114462
0.0120454
0.0119923
0.0113517
0.0103128
0.00915818
0.00819592
0.00765134
0.00754022
0.00763445
0.00778718
0.0078881
0.00786116
0.00773055
0.00749805
0.00715595
0.00669313
0.00608375
0.0052
0.00361317
0.00186942
0.00208178
0.00374969
0.00592958
0.00237253
0.00299379
0.00675989
0.00730446
0.00686619
0.00622301
0.00568239
0.00532287
0.00514773
0.00509692
0.00528417
0.00589477
0.0070292
0.00857658
0.0102388
0.0116468
0.012491
0.0126082
0.0120064
0.0108573
0.00945242
0.00818697
0.00737351
0.00701004
0.00695925
0.00706244
0.0072082
0.00730449
0.00728124
0.00715135
0.00691474
0.00656283
0.00607739
0.00538981
0.00421866
0.00244067
0.0017617
0.00258047
0.00398093
0.00514079
0.00228487
0.00300325
0.00670903
0.00746168
0.00694774
0.00642752
0.00600143
0.00569444
0.00549675
0.00549148
0.00594485
0.00702263
0.00863218
0.0104495
0.0120568
0.0130833
0.0133083
0.0127057
0.0114157
0.00977028
0.00818201
0.00702853
0.00633811
0.00600222
0.00591635
0.00598636
0.00611942
0.00622204
0.00620598
0.00606523
0.00579828
0.0054045
0.00488185
0.00419085
0.00319109
0.00207982
0.0018953
0.00282177
0.00411906
0.00514741
0.00223638
0.00270949
0.00282
0.00416523
0.00489734
0.00512509
0.00513059
0.0050833
0.0051815
0.00581393
0.00715714
0.00904452
0.0110809
0.0128242
0.0139056
0.0141059
0.0133795
0.0119029
0.00995957
0.00810741
0.00665256
0.00566167
0.00507806
0.00479808
0.00470619
0.00472047
0.00477777
0.00480756
0.00472925
0.00451725
0.00418355
0.00376286
0.00331082
0.00287473
0.0024568
0.00209038
0.00211294
0.00294586
0.00436454
0.00561781
0.00238311
0.000965008
0.00174065
0.0026719
0.00341951
0.00428805
0.00575844
0.00791807
0.0103095
0.0124825
0.0141055
0.0149543
0.014882
0.0138883
0.0120727
0.0099094
0.00785256
0.00620841
0.00508981
0.00445815
0.00413457
0.00396502
0.00386913
0.00380732
0.00374823
0.00365308
0.00348464
0.00323651
0.00295003
0.00268739
0.00250067
0.00240556
0.00239
0.00245509
0.0026908
0.00339196
0.00509676
0.00581276
0.00245507
0.00178739
0.00247488
0.00360429
0.00561714
0.00833922
0.0110552
0.0131478
0.0146512
0.0155584
0.0158109
0.0152954
0.0138976
0.0118269
0.00947545
0.00730193
0.0056476
0.00464553
0.00413175
0.00386985
0.00372237
0.00363223
0.0035731
0.00352503
0.00346579
0.00337251
0.00323612
0.0030795
0.00294278
0.00286359
0.00285993
0.00292745
0.00305712
0.00326323
0.00361366
0.00429006
0.00598635
0.00628667
0.00250119
0.00323803
0.00785791
0.00725546
0.00650652
0.00826295
0.0109947
0.0132878
0.0148252
0.0156271
0.0158175
0.0154989
0.0146298
0.0131636
0.0111614
0.00889318
0.00678767
0.00529843
0.00447808
0.00406456
0.00384189
0.00371733
0.00365828
0.00364804
0.00366858
0.003697
0.00370903
0.00368845
0.00364076
0.00359683
0.00357677
0.00359283
0.00364873
0.00374117
0.00386888
0.00404803
0.00432985
0.00482919
0.00585222
0.00635815
0.0024023
0.00309548
0.00598566
0.00774667
0.00990931
0.0109973
0.0121124
0.012755
0.0129012
0.0126448
0.0120544
0.011159
0.00997285
0.00855304
0.00706434
0.00576349
0.00481058
0.00418586
0.00379814
0.00355518
0.00341388
0.0033589
0.00338091
0.00346565
0.00359027
0.00372458
0.00383736
0.00390751
0.00394349
0.00397815
0.00402777
0.0041003
0.00419853
0.00432303
0.00447568
0.00466116
0.00488384
0.00516761
0.00581859
0.00668328
0.00236396
0.00289538
0.00248042
0.00246781
0.00253888
0.00259706
0.00251701
0.00236452
0.00218852
0.00201425
0.00185079
0.00169952
0.00156113
0.00143992
0.0013437
0.0012791
0.00124743
0.00123766
0.00124073
0.00125354
0.00127388
0.00129941
0.00132771
0.00135669
0.0013849
0.00141177
0.00143757
0.00146333
0.0014902
0.00151962
0.00155304
0.00159131
0.00163485
0.00168429
0.00174183
0.00181321
0.00190819
0.00203676
0.00219853
0.00237704
0.00225467
)
;

boundaryField
{
    floor
    {
        type            compressible::alphatWallFunction;
        Prt             0.85;
        value           nonuniform List<scalar> 
36
(
0.000219916
0.000104504
0.000149927
0.00015113
0.00014753
0.000141481
0.000133351
0.000125187
0.000117607
0.000110722
0.000104506
9.89329e-05
9.38967e-05
8.92821e-05
8.49503e-05
8.07099e-05
7.62484e-05
7.25206e-05
6.49332e-05
6.49324e-05
8.4135e-05
9.63626e-05
0.000106421
0.000127216
0.000167677
0.000160204
0.000219914
0.000239718
0.000229111
0.000219762
0.000104503
0.00021976
0.000186237
0.000266696
0.000232716
0.000265723
)
;
    }
    ceiling
    {
        type            compressible::alphatWallFunction;
        Prt             0.85;
        value           nonuniform List<scalar> 
43
(
0.000391257
0.00033887
0.00033727
0.000346315
0.000353708
0.000343578
0.000324155
0.000301558
0.00027898
0.000257608
0.000237649
0.000219224
0.000202944
0.000189916
0.00018111
0.000176764
0.000175419
0.000175834
0.000177583
0.000180365
0.000183861
0.000187734
0.000191696
0.000195548
0.000199209
0.000202716
0.000206207
0.000209838
0.000213798
0.000218286
0.000223413
0.000229229
0.000235807
0.000243405
0.000252739
0.000265065
0.00028168
0.000302512
0.000325403
0.000309961
0.000368221
0.000382112
0.000248616
)
;
    }
    sWall
    {
        type            compressible::alphatWallFunction;
        Prt             0.85;
        value           nonuniform List<scalar> 9(0.000507613 0.000477911 0.000438244 0.000402286 0.000403457 0.000366646 0.000431988 0.000414363 0.000389506);
    }
    nWall
    {
        type            compressible::alphatWallFunction;
        Prt             0.85;
        value           nonuniform List<scalar> 
14
(
0.000159756
0.000190003
0.000222737
0.000330375
0.000331157
0.000324396
0.000313162
0.000307105
0.000326167
0.000335088
0.000340943
0.000328096
0.000323141
0.00030928
)
;
    }
    sideWalls
    {
        type            empty;
    }
    glass1
    {
        type            compressible::alphatWallFunction;
        Prt             0.85;
        value           nonuniform List<scalar> 9(0.000143924 0.00020913 0.000262683 0.000313288 0.000362356 0.000409974 0.000457977 0.000498834 0.000511211);
    }
    glass2
    {
        type            compressible::alphatWallFunction;
        Prt             0.85;
        value           nonuniform List<scalar> 2(0.000286107 0.000319867);
    }
    sun
    {
        type            compressible::alphatWallFunction;
        Prt             0.85;
        value           nonuniform List<scalar> 
14
(
0.000147958
0.000157642
0.000157085
0.000163755
0.000169841
0.000175348
0.000180458
0.000185369
0.000190298
0.00019552
0.000200485
0.000205188
0.000209808
0.000214762
)
;
    }
    Table_master
    {
        type            compressible::alphatWallFunction;
        Prt             0.85;
        value           nonuniform List<scalar> 9(0.000191018 0.000166847 0.000147923 0.000132916 0.000120829 0.000110966 0.000102843 9.61777e-05 9.09428e-05);
    }
    Table_slave
    {
        type            compressible::alphatWallFunction;
        Prt             0.85;
        value           nonuniform List<scalar> 9(0.000216366 0.000197595 0.000182927 0.000170631 0.000160069 0.000150512 0.000141435 0.00013235 0.000122452);
    }
    inlet
    {
        type            fixedValue;
        value           uniform 1.94e-05;
    }
    outlet
    {
        type            zeroGradient;
    }
}


// ************************************************************************* //
