/*--------------------------------*- C++ -*----------------------------------*\
  =========                 |
  \\      /  F ield         | OpenFOAM: The Open Source CFD Toolbox
   \\    /   O peration     | Website:  https://openfoam.org
    \\  /    A nd           | Version:  6
     \\/     M anipulation  |
\*---------------------------------------------------------------------------*/
FoamFile
{
    version     2.0;
    format      ascii;
    class       volScalarField;
    location    "22100";
    object      alphat;
}
// * * * * * * * * * * * * * * * * * * * * * * * * * * * * * * * * * * * * * //

dimensions      [1 -1 -1 0 0 0 0];

internalField   nonuniform List<scalar> 
778
(
0.00104099
0.00111052
0.0011065
0.00115452
0.00119853
0.00123851
0.00127574
0.00131165
0.00134781
0.00138625
0.00142293
0.00145779
0.00149213
0.00152906
0.00156758
0.000736889
0.00105562
0.00106428
0.0010386
0.000995549
0.000937951
0.000880516
0.000827608
0.00077993
0.000737202
0.000699139
0.000664954
0.00063381
0.000604738
0.000576441
0.000546851
0.000522256
0.000472681
0.00152467
0.0030072
0.00263923
0.00304625
0.00334149
0.00365448
0.00396671
0.00425452
0.00448632
0.00462145
0.00470102
0.00466873
0.00443627
0.00385974
0.00281915
0.00171651
0.00163661
0.00156657
0.0013184
0.00224621
0.00311394
0.00362679
0.00365107
0.00288108
0.00246402
0.00217502
0.0019556
0.00178098
0.00163203
0.00150041
0.00137798
0.00125821
0.00115073
0.00105804
0.00119133
0.000599261
0.00193415
0.00419862
0.00311332
0.00445322
0.0049757
0.00541774
0.0058192
0.0061726
0.00647216
0.0067073
0.00693522
0.0071753
0.0073962
0.0075281
0.00744192
0.00681427
0.0049838
0.00192159
0.00166352
0.0035585
0.00496626
0.00563287
0.0051233
0.00135206
0.00117579
0.00103976
0.000933286
0.000848524
0.000780091
0.000724267
0.000678865
0.00064347
0.000707373
0.00083198
0.00131657
0.000681692
0.00232911
0.00565812
0.00297898
0.00500691
0.00578044
0.00619404
0.00649803
0.0067229
0.00689084
0.00702725
0.00722127
0.00754929
0.00802806
0.00863012
0.00923529
0.00953362
0.00895218
0.00667695
0.00191384
0.00443363
0.0065935
0.0076907
0.00796192
0.00679771
0.00153928
0.00140017
0.00129251
0.00120298
0.00112665
0.00105808
0.000993413
0.000929192
0.000859847
0.000803287
0.00083241
0.0014245
0.000750588
0.00271837
0.00749002
0.00300537
0.00475944
0.00594881
0.00630135
0.00642903
0.00643359
0.00636948
0.00631297
0.0063943
0.00671296
0.00729775
0.00812584
0.00908615
0.00997074
0.0105323
0.0105265
0.00944781
0.0096131
0.00983246
0.00986269
0.00966222
0.00904445
0.00719831
0.00621848
0.00554734
0.00500191
0.004467
0.00394884
0.00344188
0.00293547
0.00241505
0.00185527
0.00141607
0.00141302
0.00111813
0.000894522
0.0011723
0.0011261
0.0031013
0.00954002
0.00353797
0.00401334
0.00569945
0.00609065
0.00605891
0.00584047
0.00552849
0.00527128
0.00526566
0.00559928
0.00626539
0.00722539
0.00834904
0.00947118
0.0104267
0.011037
0.0111481
0.0110356
0.0108388
0.0105603
0.0102031
0.00974933
0.0090873
0.00844953
0.00787048
0.00731057
0.00670614
0.00606072
0.00537124
0.00463172
0.00383744
0.00299484
0.00223283
0.00167664
0.00130127
0.00145426
0.00251773
0.0013488
0.00349204
0.0114352
0.00471429
0.00328785
0.00512087
0.00576092
0.00568951
0.00533635
0.0048243
0.00437372
0.00436041
0.00478105
0.00554304
0.00661571
0.00783692
0.00904564
0.0100858
0.0108306
0.0111729
0.0111457
0.0108997
0.0105279
0.0101027
0.00967914
0.00926974
0.00889417
0.00854147
0.00816499
0.00771048
0.00716344
0.00651559
0.00576366
0.00491062
0.00397885
0.0030696
0.00222226
0.0016368
0.00145889
0.00255067
0.00158661
0.00382777
0.0128681
0.00642665
0.00313061
0.00405637
0.00510675
0.00525304
0.00496289
0.00435772
0.0037449
0.00388325
0.00443921
0.00529085
0.00639607
0.00766411
0.00892954
0.010009
0.0107588
0.0110991
0.011054
0.0107366
0.010269
0.00976648
0.00932123
0.00897818
0.00873316
0.0085422
0.00833477
0.00804636
0.00764269
0.00710759
0.00643767
0.00563949
0.00473799
0.0038036
0.00286221
0.00201433
0.00133133
0.00363348
0.00206269
0.00392902
0.0121741
0.00794983
0.00404693
0.00275036
0.00336976
0.00394276
0.00399103
0.00352364
0.00342484
0.00378042
0.00443397
0.00535423
0.00652564
0.00785422
0.00915863
0.0102345
0.0109269
0.0111699
0.0110024
0.0105425
0.00993969
0.00934199
0.00886547
0.00856313
0.00841463
0.00834727
0.00826751
0.0081018
0.00781042
0.0073774
0.00680083
0.00608851
0.00526158
0.00435806
0.00334838
0.00201014
0.00161415
0.0054381
0.00235583
0.00384959
0.00981173
0.00820754
0.00555318
0.00366868
0.00284115
0.00269084
0.00281698
0.00305355
0.00343026
0.00396451
0.00469977
0.00570002
0.00696229
0.00836268
0.0096854
0.0107054
0.0112674
0.0113263
0.0109491
0.0102847
0.00952018
0.00883831
0.00837161
0.00815786
0.00813259
0.00817847
0.00817735
0.00806981
0.00783351
0.00746063
0.00695045
0.00630806
0.00554107
0.00461222
0.00322667
0.00156263
0.00280419
0.00557037
0.00239691
0.00360596
0.00838433
0.00793366
0.006353
0.00489086
0.00393843
0.00346738
0.00336104
0.00355638
0.00391574
0.00443795
0.00521377
0.00631777
0.00770093
0.009172
0.0104665
0.0113459
0.0116736
0.0114443
0.0107727
0.00985974
0.00894596
0.00825263
0.00790525
0.00786493
0.00797793
0.00809201
0.00809384
0.00798019
0.00775075
0.00740031
0.00692339
0.00631624
0.00555652
0.00443682
0.00249592
0.00174961
0.0034675
0.00526
0.00236733
0.00328321
0.00755829
0.00765134
0.00672301
0.00572079
0.00496603
0.00452171
0.00436311
0.00440366
0.00462123
0.00510131
0.0059681
0.007244
0.00877516
0.0102767
0.0114411
0.0120421
0.0119936
0.0113583
0.0103227
0.00916701
0.00820305
0.00765964
0.00754937
0.00764201
0.00779031
0.00788994
0.00786217
0.00773087
0.00749908
0.00715745
0.00669183
0.00608384
0.00527008
0.00374646
0.00180417
0.00221736
0.00375522
0.00484672
0.00228865
0.00299345
0.00675792
0.00730294
0.006866
0.00622375
0.00568383
0.00532485
0.00514983
0.00509898
0.00528645
0.00589707
0.00702998
0.00857322
0.0102292
0.0116318
0.0124748
0.0125971
0.0120047
0.0108639
0.00946293
0.0081963
0.00738749
0.00703195
0.00698184
0.00707372
0.00720399
0.00729462
0.00727466
0.00714792
0.00691646
0.00656693
0.00608049
0.00543569
0.00454628
0.00305125
0.001779
0.00242258
0.00391218
0.00498189
0.00223772
0.00300334
0.00670618
0.00746022
0.00694737
0.00642789
0.0060024
0.00569583
0.00549786
0.00549321
0.00594776
0.00702487
0.00862931
0.0104366
0.012032
0.0130505
0.013277
0.0126861
0.0114112
0.0097736
0.00819281
0.00705228
0.00638143
0.00605395
0.005954
0.00599108
0.00609016
0.00618057
0.00618129
0.00605436
0.00579742
0.00539228
0.00483257
0.00414674
0.00338214
0.00253745
0.0019048
0.00247694
0.00407805
0.00536489
0.0023655
0.00270955
0.00281949
0.0041653
0.00489766
0.00512533
0.00513055
0.00508281
0.00518182
0.00581697
0.00716153
0.00904428
0.011068
0.0127926
0.0138562
0.0140491
0.0133318
0.011876
0.00995032
0.00811608
0.00668846
0.00572758
0.0051588
0.00487009
0.00474483
0.00470811
0.00471826
0.00473586
0.00469228
0.00451415
0.00419166
0.00372631
0.00318161
0.00268342
0.00234057
0.00217618
0.00219798
0.00278691
0.00454757
0.00542011
0.00242557
0.000965277
0.00174079
0.00267085
0.00341617
0.00428282
0.00575828
0.00792213
0.0103112
0.0124708
0.0140706
0.0148925
0.0148
0.0138041
0.0120075
0.00987571
0.0078572
0.0062588
0.00517728
0.00456322
0.00423692
0.00404383
0.00390687
0.00379685
0.003702
0.00360854
0.00348468
0.00328036
0.00299198
0.00266414
0.00239252
0.00226476
0.00230165
0.00248273
0.00282996
0.00353143
0.00533183
0.00578922
0.00245584
0.00178712
0.00247182
0.00359707
0.00560675
0.00833129
0.011048
0.0131433
0.0146388
0.0155241
0.0157459
0.0151991
0.0137814
0.0117124
0.00939498
0.00728764
0.00570965
0.00476694
0.00428589
0.00402763
0.00385584
0.00372094
0.00360972
0.00351847
0.00344162
0.00336666
0.00327116
0.00313455
0.00296948
0.002817
0.00273857
0.00278226
0.00295407
0.00323514
0.0036333
0.00423211
0.0053186
0.00604063
0.00238533
0.00323878
0.0078553
0.00724734
0.00649363
0.00824719
0.0109833
0.0132832
0.0148235
0.0156197
0.0157965
0.0154514
0.0145536
0.0130649
0.01106
0.00883733
0.00684213
0.00546253
0.00471944
0.00433831
0.00410005
0.00391536
0.00376388
0.00364932
0.00357868
0.00355309
0.00356388
0.00359132
0.00360593
0.00358747
0.0035607
0.00355317
0.00359209
0.00369885
0.00387701
0.00410653
0.00435213
0.00457026
0.00469409
0.00462824
0.00231396
0.0030958
0.00598312
0.00773871
0.00989866
0.0109834
0.0120998
0.0127455
0.0128939
0.0126345
0.0120297
0.0111043
0.00987606
0.00842853
0.00696137
0.00575018
0.00494874
0.00445486
0.00413862
0.00390183
0.00370288
0.00353698
0.00341521
0.00335201
0.00335771
0.00343333
0.00356669
0.00372982
0.00387842
0.00397089
0.00404022
0.00412055
0.00423434
0.00439412
0.00460371
0.00485975
0.00515107
0.00544874
0.00569893
0.00526487
0.0024015
0.00289488
0.0024801
0.00246702
0.00253754
0.00259495
0.00251342
0.0023582
0.00217771
0.00199728
0.0018272
0.00167111
0.00153249
0.00141707
0.00133128
0.00127717
0.00124949
0.00124201
0.0012434
0.0012508
0.00126456
0.00128562
0.0013142
0.00134921
0.00138849
0.00142953
0.00147028
0.0015097
0.00154805
0.00158648
0.00162559
0.00166813
0.00171689
0.00177389
0.00184015
0.00191507
0.00199538
0.00207585
0.00216157
0.00228883
0.0023158
)
;

boundaryField
{
    floor
    {
        type            compressible::alphatWallFunction;
        Prt             0.85;
        value           nonuniform List<scalar> 
36
(
0.000219917
0.000104492
0.000149972
0.000151181
0.000147587
0.000141538
0.000133396
0.000125219
0.000117631
0.000110744
0.000104529
9.89564e-05
9.39201e-05
8.93047e-05
8.49712e-05
8.07288e-05
7.62649e-05
7.25321e-05
6.49409e-05
6.49401e-05
8.4153e-05
9.63911e-05
0.000106482
0.000127222
0.000166191
0.00015981
0.000219914
0.000239738
0.000229126
0.000219777
0.00010449
0.000219775
0.000186255
0.000266727
0.000232698
0.000265713
)
;
    }
    ceiling
    {
        type            compressible::alphatWallFunction;
        Prt             0.85;
        value           nonuniform List<scalar> 
43
(
0.000391194
0.000338831
0.00033717
0.000346148
0.000353445
0.000343131
0.000323361
0.00030018
0.000276787
0.000254516
0.000233871
0.000215358
0.000199808
0.000188171
0.000180799
0.000177023
0.000176004
0.000176199
0.000177211
0.000179087
0.000181956
0.000185849
0.000190617
0.000195964
0.000201544
0.000207074
0.00021241
0.000217583
0.000222751
0.000227989
0.000233661
0.000240137
0.000247683
0.000256427
0.000266284
0.000276821
0.000287338
0.000298436
0.000314723
0.00031833
0.00036823
0.000382048
0.000248581
)
;
    }
    sWall
    {
        type            compressible::alphatWallFunction;
        Prt             0.85;
        value           nonuniform List<scalar> 9(0.000507619 0.000477898 0.00043821 0.000402243 0.000403468 0.000366655 0.00043208 0.000414401 0.000389443);
    }
    nWall
    {
        type            compressible::alphatWallFunction;
        Prt             0.85;
        value           nonuniform List<scalar> 
14
(
0.000159363
0.00018995
0.000221982
0.000327673
0.000323853
0.000313768
0.000307332
0.000323953
0.000331409
0.000335266
0.000325937
0.000317065
0.000328816
0.000317647
)
;
    }
    sideWalls
    {
        type            empty;
    }
    glass1
    {
        type            compressible::alphatWallFunction;
        Prt             0.85;
        value           nonuniform List<scalar> 9(0.000143928 0.000209135 0.000262692 0.000313301 0.000362373 0.000409995 0.000458002 0.000498858 0.000511227);
    }
    glass2
    {
        type            compressible::alphatWallFunction;
        Prt             0.85;
        value           nonuniform List<scalar> 2(0.000282427 0.000320125);
    }
    sun
    {
        type            compressible::alphatWallFunction;
        Prt             0.85;
        value           nonuniform List<scalar> 
14
(
0.000147962
0.000157643
0.000157082
0.000163748
0.000169829
0.000175332
0.000180438
0.000185346
0.000190274
0.000195495
0.000200463
0.00020517
0.000209796
0.000214757
)
;
    }
    Table_master
    {
        type            compressible::alphatWallFunction;
        Prt             0.85;
        value           nonuniform List<scalar> 9(0.000191109 0.000166939 0.000148005 0.000132983 0.000120882 0.000111006 0.000102874 9.62037e-05 9.09662e-05);
    }
    Table_slave
    {
        type            compressible::alphatWallFunction;
        Prt             0.85;
        value           nonuniform List<scalar> 9(0.000216396 0.000197645 0.00018299 0.000170697 0.000160133 0.000150573 0.000141492 0.000132405 0.000122509);
    }
    inlet
    {
        type            fixedValue;
        value           uniform 1.94e-05;
    }
    outlet
    {
        type            zeroGradient;
    }
}


// ************************************************************************* //
