/*--------------------------------*- C++ -*----------------------------------*\
  =========                 |
  \\      /  F ield         | OpenFOAM: The Open Source CFD Toolbox
   \\    /   O peration     | Website:  https://openfoam.org
    \\  /    A nd           | Version:  6
     \\/     M anipulation  |
\*---------------------------------------------------------------------------*/
FoamFile
{
    version     2.0;
    format      ascii;
    class       volScalarField;
    location    "22100";
    object      nut;
}
// * * * * * * * * * * * * * * * * * * * * * * * * * * * * * * * * * * * * * //

dimensions      [0 2 -1 0 0 0 0];

internalField   nonuniform List<scalar> 
778
(
0.000894312
0.000953044
0.000949542
0.000990732
0.00102848
0.00106278
0.00109471
0.00112551
0.00115652
0.00118948
0.00122093
0.00125081
0.00128024
0.00131188
0.00134488
0.000632346
0.000905474
0.000912872
0.000890846
0.000853926
0.000804531
0.000755277
0.000709905
0.000669019
0.000632377
0.000599737
0.000570421
0.000543714
0.000518783
0.000494517
0.000469142
0.000448055
0.000405566
0.00131079
0.00258108
0.00226502
0.00261432
0.0028677
0.00313632
0.00340427
0.00365125
0.00385013
0.00396604
0.00403421
0.00400631
0.00380659
0.00331161
0.00241856
0.00147251
0.00140391
0.00134381
0.00113086
0.00192657
0.00267074
0.00311057
0.00313139
0.00247101
0.00211332
0.00186546
0.00167728
0.00152753
0.00139978
0.00128691
0.0011819
0.00107919
0.000987025
0.000907558
0.00102194
0.000514143
0.00166406
0.00360433
0.00267218
0.00382231
0.00427092
0.0046505
0.00499524
0.0052987
0.0055559
0.00575771
0.00595318
0.00615886
0.00634783
0.00646014
0.00638523
0.00584593
0.00427513
0.00164824
0.00142675
0.00305195
0.00425929
0.00483101
0.00439398
0.0011596
0.00100842
0.000891758
0.000800443
0.000727749
0.000669059
0.000621183
0.000582246
0.000551893
0.000606711
0.000713609
0.00112932
0.000584855
0.0020053
0.00485833
0.00255719
0.00429817
0.00496256
0.00531803
0.0055794
0.0057728
0.00591723
0.00603444
0.00620089
0.00648204
0.00689212
0.0074075
0.00792519
0.00817954
0.00767943
0.00572702
0.00164148
0.00380253
0.00565489
0.00659589
0.00682852
0.00583007
0.00132017
0.00120086
0.00110853
0.00103174
0.000966277
0.000907466
0.000852008
0.000796929
0.000737455
0.00068896
0.000713962
0.00122188
0.000643961
0.00234205
0.00643301
0.00258019
0.00408628
0.00510797
0.00541128
0.00552154
0.00552603
0.0054714
0.0054231
0.0054929
0.00576609
0.00626717
0.00697637
0.00779843
0.00855528
0.00903514
0.00902897
0.00810314
0.00824469
0.00843279
0.00845878
0.00828692
0.00775715
0.00617381
0.00533346
0.00475785
0.00429006
0.00383127
0.00338686
0.00295205
0.0025177
0.00207134
0.00159124
0.00121457
0.00121201
0.000959238
0.000767436
0.0010058
0.000966471
0.0026737
0.0081962
0.00303788
0.00344611
0.00489453
0.00523123
0.00520473
0.00501782
0.00475041
0.00452978
0.00452502
0.00481123
0.00538227
0.00620465
0.0071667
0.00812709
0.00894469
0.00946677
0.00956141
0.00946471
0.00929593
0.00905721
0.00875105
0.00836196
0.00779423
0.00724725
0.00675062
0.00627038
0.00575196
0.00519836
0.00460698
0.00397267
0.00329139
0.00256868
0.00191512
0.00143812
0.00111627
0.00124757
0.00215999
0.00115767
0.00301224
0.00982769
0.00404866
0.00282344
0.00439811
0.00494858
0.00488803
0.00458539
0.00414608
0.00375934
0.00374812
0.0041093
0.00476284
0.00568191
0.00672754
0.00776205
0.00865219
0.00928961
0.00958255
0.0095591
0.0093483
0.00902965
0.00866526
0.00830211
0.00795105
0.00762896
0.00732645
0.00700352
0.00661366
0.0061444
0.00558868
0.0049437
0.00421198
0.00341276
0.00263288
0.00190613
0.00140404
0.00125149
0.00218818
0.00136172
0.00330359
0.0110646
0.00552112
0.00268879
0.00348413
0.00438694
0.0045133
0.00426467
0.00374527
0.0032192
0.00333847
0.00381604
0.00454657
0.00549355
0.0065792
0.00766215
0.00858583
0.00922763
0.00951901
0.00948047
0.0092086
0.00880793
0.00837725
0.00799553
0.00770138
0.00749123
0.00732743
0.00714947
0.00690204
0.00655572
0.00609668
0.00552198
0.0048373
0.004064
0.00326252
0.00245507
0.00172787
0.00114204
0.00311727
0.00177142
0.00339337
0.0104837
0.00683722
0.00347761
0.00236278
0.00289501
0.00338769
0.00342963
0.00302856
0.00294431
0.00325037
0.00381177
0.00460102
0.00560447
0.00674168
0.00785781
0.00877847
0.00937117
0.0095795
0.00943629
0.00904252
0.00852597
0.00801363
0.00760506
0.00734578
0.00721838
0.00716056
0.00709208
0.00694985
0.00669982
0.0063283
0.00583367
0.00522259
0.00451323
0.00373819
0.00287214
0.00172428
0.00138472
0.00466634
0.00202423
0.00332468
0.008458
0.00706646
0.0047764
0.00315367
0.00244175
0.0023125
0.00242111
0.00262504
0.00294956
0.00340909
0.00404029
0.00489758
0.00597827
0.00717651
0.00830814
0.00918107
0.00966255
0.00971354
0.00939089
0.00882188
0.00816673
0.00758213
0.00718189
0.00699853
0.00697678
0.00701605
0.00701498
0.00692263
0.00671982
0.00639987
0.00596216
0.00541105
0.00475307
0.0039563
0.00276781
0.0013405
0.0024066
0.00478268
0.00205958
0.00311438
0.00723091
0.00683516
0.00546867
0.00420755
0.00338708
0.0029816
0.00289025
0.00305872
0.00336811
0.00381665
0.00448165
0.00542677
0.00661009
0.00786833
0.00897587
0.00972887
0.0100104
0.00981498
0.00924025
0.00845818
0.00767486
0.00708027
0.00678224
0.00674756
0.00684437
0.0069421
0.00694354
0.00684592
0.006649
0.00634828
0.00593908
0.00541818
0.00476644
0.00380594
0.00214107
0.00150123
0.0029768
0.00451741
0.00203429
0.00283599
0.00652053
0.00659508
0.00579087
0.0049251
0.00427399
0.00389104
0.00375455
0.0037895
0.00397598
0.00438674
0.005128
0.00621888
0.00752793
0.0088121
0.00980891
0.0103247
0.0102848
0.00974202
0.00885537
0.0078649
0.00703824
0.00657203
0.00647727
0.00655657
0.00668361
0.00676892
0.00674495
0.00663219
0.00643324
0.00614008
0.00574057
0.00521895
0.00452084
0.00321383
0.00154779
0.00190298
0.00322457
0.00416343
0.00196688
0.00258631
0.00583247
0.00629782
0.00591745
0.0053616
0.00489508
0.00458521
0.00443409
0.00438904
0.00454742
0.00506773
0.00603492
0.00735328
0.00876887
0.0099693
0.0106928
0.0108002
0.0102954
0.00931954
0.0081192
0.00703306
0.00633911
0.00603385
0.00599062
0.00606922
0.00618079
0.00625837
0.0062411
0.00613225
0.00593358
0.00563365
0.00521628
0.00466308
0.00390007
0.00261757
0.00152628
0.00207924
0.00335963
0.00428001
0.00192326
0.00259436
0.00578819
0.00643461
0.00598946
0.0055395
0.00517127
0.0049059
0.00473334
0.00472501
0.00510954
0.00602714
0.00739647
0.00894085
0.0103066
0.0111815
0.01138
0.0108783
0.00978882
0.00838627
0.00703082
0.00605219
0.0054763
0.00519503
0.00510902
0.0051406
0.00522542
0.00530281
0.0053033
0.00519429
0.00497376
0.00462612
0.00414591
0.00355752
0.00290158
0.00217695
0.00163431
0.00212583
0.00350185
0.00460857
0.00203275
0.00234172
0.00243518
0.00359198
0.00421909
0.00441225
0.00441433
0.00437048
0.00445013
0.00498775
0.00613256
0.00773895
0.00946903
0.0109477
0.0118645
0.0120376
0.0114303
0.0101874
0.00853875
0.00696587
0.00574081
0.00491595
0.00442756
0.00417956
0.00407186
0.00404016
0.00404869
0.00406363
0.00402611
0.00387318
0.00359643
0.00319712
0.00272979
0.00230239
0.00200828
0.00186731
0.00188615
0.00239198
0.00390484
0.00465545
0.0020841
0.000807833
0.00146577
0.00226177
0.00290169
0.00364199
0.00489971
0.00674651
0.00879063
0.010645
0.0120258
0.0127434
0.0126775
0.0118345
0.0103015
0.00847586
0.00674476
0.00537296
0.00444447
0.00391719
0.00363694
0.00347105
0.00335336
0.00325879
0.00317724
0.00309689
0.00299047
0.00281505
0.00256754
0.00228621
0.00205318
0.00194364
0.00197544
0.00213101
0.00242923
0.00303171
0.00457858
0.00497246
0.00211011
0.00149708
0.00207646
0.00303091
0.00473798
0.00705857
0.00938292
0.011188
0.0124866
0.0132648
0.0134739
0.0130221
0.0118184
0.0100503
0.00806487
0.00625707
0.00490254
0.00409311
0.00367999
0.00345818
0.00331062
0.00319475
0.0030992
0.00302078
0.00295469
0.00289021
0.00280809
0.00269072
0.00254897
0.0024181
0.00235086
0.00238855
0.00253631
0.00277793
0.00312016
0.0036348
0.00456855
0.00518943
0.00204983
0.00275767
0.00666446
0.00612028
0.00547365
0.00696949
0.00931301
0.0112971
0.012638
0.0133423
0.0135131
0.0132336
0.0124767
0.0112087
0.0094936
0.00758809
0.00587589
0.00469139
0.00405325
0.00372592
0.0035213
0.0033627
0.00323264
0.00313427
0.00307361
0.00305161
0.00306079
0.00308423
0.00309662
0.00308061
0.00305752
0.00305103
0.00308452
0.0031764
0.0033297
0.00352725
0.0037387
0.00392664
0.00403357
0.00397739
0.00198889
0.00263916
0.00509841
0.00658153
0.00840387
0.00933744
0.0103114
0.0108856
0.0110314
0.0108233
0.0103148
0.00952775
0.00847802
0.00723779
0.0059791
0.00493931
0.00425106
0.00382686
0.00355523
0.00335186
0.00318101
0.00303859
0.00293406
0.00287983
0.00288477
0.00294973
0.00306423
0.00320425
0.00333174
0.00341101
0.00347042
0.00353935
0.0036371
0.00377446
0.00395472
0.00417499
0.00442568
0.00468188
0.00489733
0.00452484
0.00206446
0.00247387
0.00211936
0.0021086
0.00216953
0.00221978
0.00215251
0.00202175
0.00186852
0.00171467
0.00156924
0.00143553
0.00131664
0.00121758
0.00114391
0.00109743
0.00107365
0.00106723
0.00106844
0.00107482
0.00108668
0.00110481
0.0011294
0.00115952
0.00119328
0.00122855
0.00126354
0.00129738
0.00133029
0.00136327
0.00139684
0.00143338
0.00147528
0.0015243
0.00158129
0.00164575
0.00171488
0.00178418
0.00185802
0.00196759
0.0019911
)
;

boundaryField
{
    floor
    {
        type            nutkWallFunction;
        Cmu             0.09;
        kappa           0.41;
        E               9.8;
        value           nonuniform List<scalar> 
36
(
0.000160578
7.6379e-05
0.000109534
0.000110414
0.000107792
0.00010338
9.74414e-05
9.14771e-05
8.5942e-05
8.09178e-05
7.63839e-05
7.23182e-05
6.86436e-05
6.52758e-05
6.21136e-05
5.90175e-05
5.57597e-05
5.30355e-05
4.7496e-05
4.74959e-05
6.15227e-05
7.04555e-05
7.78207e-05
9.29541e-05
0.000121391
0.000116767
0.000160578
0.000175022
0.000167275
0.000160455
7.6379e-05
0.000160455
0.000136
0.000194687
0.000169858
0.000193934
)
;
    }
    ceiling
    {
        type            nutkWallFunction;
        Cmu             0.09;
        kappa           0.41;
        E               9.8;
        value           nonuniform List<scalar> 
43
(
0.000284337
0.000246291
0.000245129
0.000251721
0.000257148
0.000249909
0.000235746
0.000219012
0.000202051
0.000185859
0.000170823
0.000157324
0.000145977
0.000137482
0.000132099
0.000129341
0.000128597
0.000128741
0.000129482
0.000130856
0.000132956
0.000135803
0.00013929
0.000143197
0.000147272
0.00015131
0.000155204
0.000158978
0.000162748
0.000166571
0.000170712
0.000175443
0.000180958
0.000187351
0.000194561
0.000202269
0.000209968
0.000218093
0.000230012
0.000232683
0.000270427
0.000280414
0.000177578
)
;
    }
    sWall
    {
        type            nutkWallFunction;
        Cmu             0.09;
        kappa           0.41;
        E               9.8;
        value           nonuniform List<scalar> 9(0.000373892 0.000352075 0.000322961 0.0002966 0.00029745 0.000270516 0.000314411 0.000301932 0.000284439);
    }
    nWall
    {
        type            nutkWallFunction;
        Cmu             0.09;
        kappa           0.41;
        E               9.8;
        value           nonuniform List<scalar> 
14
(
0.000116774
0.000139124
0.000162513
0.000239915
0.000237137
0.000229788
0.000225101
0.000237215
0.000242639
0.000245458
0.000238673
0.000232229
0.000240851
0.000232719
)
;
    }
    sideWalls
    {
        type            empty;
    }
    glass1
    {
        type            nutkWallFunction;
        Cmu             0.09;
        kappa           0.41;
        E               9.8;
        value           nonuniform List<scalar> 9(0.000108248 0.000156884 0.00019674 0.000234354 0.000270799 0.00030615 0.000341765 0.000372085 0.000381381);
    }
    glass2
    {
        type            nutkWallFunction;
        Cmu             0.09;
        kappa           0.41;
        E               9.8;
        value           nonuniform List<scalar> 2(0.000208464 0.00023622);
    }
    sun
    {
        type            nutkWallFunction;
        Cmu             0.09;
        kappa           0.41;
        E               9.8;
        value           nonuniform List<scalar> 
14
(
0.000108207
0.000115179
0.000114764
0.000119626
0.000124063
0.000128076
0.0001318
0.00013538
0.000138973
0.000142781
0.000146402
0.000149833
0.000153204
0.000156818
)
;
    }
    Table_master
    {
        type            nutkWallFunction;
        Cmu             0.09;
        kappa           0.41;
        E               9.8;
        value           nonuniform List<scalar> 9(0.00013932 0.000121701 0.000107898 9.69477e-05 8.81254e-05 8.09264e-05 7.49979e-05 7.01356e-05 6.63179e-05);
    }
    Table_slave
    {
        type            nutkWallFunction;
        Cmu             0.09;
        kappa           0.41;
        E               9.8;
        value           nonuniform List<scalar> 9(0.000157752 0.000144083 0.0001334 0.000124438 0.000116737 0.000109768 0.000103148 9.65233e-05 8.93091e-05);
    }
    inlet
    {
        type            calculated;
        value           uniform 0.000167705;
    }
    outlet
    {
        type            calculated;
        value           nonuniform List<scalar> 2(0.00275767 0.00666446);
    }
}


// ************************************************************************* //
