/*--------------------------------*- C++ -*----------------------------------*\
  =========                 |
  \\      /  F ield         | OpenFOAM: The Open Source CFD Toolbox
   \\    /   O peration     | Website:  https://openfoam.org
    \\  /    A nd           | Version:  6
     \\/     M anipulation  |
\*---------------------------------------------------------------------------*/
FoamFile
{
    version     2.0;
    format      ascii;
    class       volScalarField;
    location    "40";
    object      nut;
}
// * * * * * * * * * * * * * * * * * * * * * * * * * * * * * * * * * * * * * //

dimensions      [0 2 -1 0 0 0 0];

internalField   nonuniform List<scalar> 
458
(
0.00118851
0.0013102
0.00135421
0.00142637
0.00149484
0.00156213
0.00163271
0.00170057
0.00175802
0.00179887
0.00181637
0.00180343
0.00167825
0.00145725
0.00122423
0.000478403
0.00061811
0.000702879
0.000715456
0.000686607
0.000612336
0.000537677
0.000472622
0.000419653
0.000382446
0.000360625
0.000350436
0.000348722
0.000356706
0.00038258
0.000423671
0.000464318
0.000417035
0.00155151
0.00389842
0.00375894
0.00432659
0.00492196
0.00551057
0.00598995
0.00641684
0.0068457
0.00725233
0.00761077
0.00790666
0.00806021
0.00756323
0.00491967
0.0015391
0.00130312
0.00104177
0.000559791
0.00211491
0.00313206
0.00354758
0.00317123
0.00204512
0.0016088
0.00129054
0.00107745
0.000948063
0.00087815
0.0008467
0.000843419
0.000880025
0.00106545
0.00138204
0.0016551
0.000541758
0.0018519
0.00535214
0.00481192
0.00571695
0.00619596
0.00652167
0.00674341
0.00696492
0.00725834
0.00765128
0.00815534
0.00876387
0.00936258
0.00945488
0.0085245
0.00614036
0.00422358
0.0012177
0.000776099
0.00244443
0.00398577
0.00477777
0.00389128
0.000829864
0.000644464
0.000524998
0.000446126
0.000395928
0.000367457
0.00035478
0.000356471
0.000396766
0.000930634
0.00159315
0.00211098
0.00066742
0.00213621
0.00667602
0.0049459
0.00611522
0.00641225
0.00639996
0.0063531
0.00638686
0.00656059
0.00693797
0.00752755
0.00828968
0.0090551
0.00950517
0.00934548
0.00829642
0.00639267
0.00297469
0.00125455
0.00153152
0.00261924
0.00458105
0.00578131
0.0045799
0.000877762
0.000790369
0.000798078
0.000825761
0.000859664
0.0008936
0.000921854
0.000936918
0.000930189
0.00132946
0.00191125
0.00247043
0.000841794
0.0024248
0.00833192
0.00531602
0.00606628
0.00647776
0.00630038
0.00604639
0.00596552
0.00606766
0.00645869
0.00709908
0.00785694
0.00857304
0.00908658
0.00924144
0.0088424
0.00757066
0.00514305
0.00348387
0.00371178
0.00494656
0.00645316
0.00738427
0.0069898
0.0054518
0.00522282
0.00523807
0.00531525
0.00538753
0.00541222
0.00536223
0.00523275
0.00503932
0.00477925
0.00440918
0.00396139
0.00235809
0.00103934
0.000995599
0.000906034
0.00273258
0.0101513
0.0069077
0.00604849
0.00645566
0.00646211
0.00601455
0.00585742
0.00592244
0.00630815
0.00696876
0.00772179
0.00836695
0.00880002
0.00899496
0.00887193
0.00817903
0.00671328
0.00561896
0.00597814
0.00711263
0.00829453
0.00890085
0.00870683
0.00808861
0.00780669
0.00770234
0.007642
0.00753595
0.0073256
0.00700458
0.00663421
0.00630871
0.00608629
0.00582627
0.00537022
0.00444915
0.00353469
0.00326112
0.00111667
0.00300846
0.0113687
0.00920948
0.00722039
0.00685319
0.00666911
0.00620888
0.00589371
0.00593348
0.00638144
0.00711098
0.00787851
0.00845534
0.00878004
0.00893729
0.00900352
0.00876093
0.00800716
0.00750156
0.00796746
0.00886324
0.00961279
0.00987698
0.00964753
0.00921186
0.00886059
0.00859481
0.00833897
0.00801071
0.00755343
0.00700247
0.00648365
0.00612113
0.00598385
0.0060338
0.00601065
0.00564797
0.00506135
0.00439049
0.00132108
0.00306818
0.00990764
0.00888751
0.00812679
0.00761211
0.00678486
0.00604605
0.00574243
0.00597776
0.00665583
0.00752634
0.0082939
0.00874799
0.00893829
0.00910331
0.00945648
0.00948611
0.00921539
0.00908262
0.0094552
0.00996011
0.0102219
0.0101128
0.0097345
0.009267
0.00881858
0.00842529
0.00803821
0.00757627
0.00699389
0.0063689
0.00585709
0.00556268
0.00552794
0.00576504
0.00617487
0.0062752
0.00577299
0.00543767
0.00149537
0.00299305
0.00355986
0.0039288
0.00410868
0.00411881
0.00418663
0.00448447
0.00516574
0.0061961
0.00734777
0.00832267
0.00890556
0.00901882
0.00912524
0.00944722
0.00982838
0.0100141
0.0099895
0.00996786
0.0100703
0.0100987
0.00988679
0.00945095
0.00892195
0.00840318
0.0079227
0.00752615
0.00717316
0.0067677
0.00622684
0.00560798
0.00505734
0.00463076
0.00429562
0.00400328
0.00371355
0.00340546
0.00301631
0.00266521
0.00144717
0.00103427
0.00187159
0.00295486
0.00426063
0.0057339
0.00720039
0.00840114
0.00913089
0.00933156
0.00920256
0.00888552
0.00887054
0.00917111
0.00947391
0.00962024
0.00962324
0.00952255
0.00932102
0.00895534
0.00843031
0.00785131
0.00732833
0.00689509
0.00652803
0.00626113
0.0060701
0.00588116
0.00559529
0.00518553
0.00474975
0.00439812
0.00412662
0.00388352
0.00359986
0.00322503
0.00277094
0.00229686
0.0012624
0.00196609
0.00480884
0.00711528
0.0086286
0.00936258
0.00956715
0.00938982
0.00885032
0.00811165
0.00746245
0.00707004
0.00690594
0.00686372
0.00686613
0.00686804
0.00682676
0.00670709
0.00650358
0.00624146
0.00597924
0.00577238
0.00563239
0.00552823
0.00540453
0.00532343
0.00528727
0.00524487
0.00510237
0.00487922
0.00465247
0.00445552
0.00428718
0.00411734
0.00389878
0.00358553
0.0032023
0.00319326
0.00132591
0.00213445
0.00221224
0.00227843
0.00258098
0.00247226
0.0022556
0.00205652
0.00191264
0.00178149
0.00163928
0.0014966
0.00137328
0.00128491
0.00122991
0.001198
0.00117868
0.00116387
0.00114788
0.001128
0.00110594
0.00108574
0.00107008
0.00105892
0.00105053
0.00104375
0.00104406
0.00104633
0.00105046
0.00105556
0.0010657
0.00107924
0.00109774
0.00112328
0.00115743
0.00120189
0.00124269
0.00124855
0.00119977
0.00113326
0.00104507
)
;

boundaryField
{
    floor
    {
        type            nutkWallFunction;
        Cmu             0.09;
        kappa           0.41;
        E               9.8;
        value           nonuniform List<scalar> 
36
(
0.000146788
5.69414e-05
7.46215e-05
8.50994e-05
8.66367e-05
8.30909e-05
7.38843e-05
6.44942e-05
5.61822e-05
4.9314e-05
4.44301e-05
4.1542e-05
4.01888e-05
3.99649e-05
4.10385e-05
4.44872e-05
4.9894e-05
5.51636e-05
4.90029e-05
4.90028e-05
6.50491e-05
8.07664e-05
0.000102001
0.000125427
0.000120275
0.000109654
0.000146788
0.000182514
0.00015581
0.000125582
5.69414e-05
0.000125582
6.73329e-05
0.000146003
9.40732e-05
0.000150238
)
;
    }
    ceiling
    {
        type            nutkWallFunction;
        Cmu             0.09;
        kappa           0.41;
        E               9.8;
        value           nonuniform List<scalar> 
43
(
0.000247853
0.000256243
0.000263359
0.000295712
0.000284222
0.000261074
0.000239579
0.000223901
0.0002095
0.000193751
0.000177798
0.000163874
0.00015381
0.000147505
0.000143831
0.000141599
0.000139882
0.000138026
0.000135715
0.000133148
0.000130793
0.000128964
0.000127661
0.000126678
0.000125883
0.000125918
0.000126182
0.000126665
0.000127261
0.000128445
0.000130029
0.000132188
0.000135159
0.00013912
0.000144259
0.000148949
0.000149617
0.000144001
0.000136314
0.000126032
0.000339428
0.000398115
0.000229469
)
;
    }
    sWall
    {
        type            nutkWallFunction;
        Cmu             0.09;
        kappa           0.41;
        E               9.8;
        value           uniform 0.00024792;
    }
    nWall
    {
        type            nutkWallFunction;
        Cmu             0.09;
        kappa           0.41;
        E               9.8;
        value           nonuniform List<scalar> 6(0.000109657 0.000134426 0.000157953 0.000151232 0.0001585 0.000126038);
    }
    sideWalls
    {
        type            empty;
    }
    glass1
    {
        type            nutkWallFunction;
        Cmu             0.09;
        kappa           0.41;
        E               9.8;
        value           nonuniform List<scalar> 9(0.000142829 0.000184184 0.000217582 0.000248647 0.000279726 0.000312439 0.000341432 0.000347679 0.000339839);
    }
    glass2
    {
        type            nutkWallFunction;
        Cmu             0.09;
        kappa           0.41;
        E               9.8;
        value           nonuniform List<scalar> 2(0.000177717 0.000172278);
    }
    sun
    {
        type            nutkWallFunction;
        Cmu             0.09;
        kappa           0.41;
        E               9.8;
        value           nonuniform List<scalar> 
14
(
0.000142697
0.000156656
0.000161666
0.000169848
0.00017757
0.000185121
0.000193004
0.000200548
0.000206909
0.000211418
0.000213347
0.000211925
0.000198055
0.000173316
)
;
    }
    Table_master
    {
        type            nutkWallFunction;
        Cmu             0.09;
        kappa           0.41;
        E               9.8;
        value           nonuniform List<scalar> 9(0.000100515 7.78794e-05 6.28864e-05 5.27639e-05 4.62115e-05 4.24541e-05 4.07735e-05 4.10075e-05 4.63672e-05);
    }
    Table_slave
    {
        type            nutkWallFunction;
        Cmu             0.09;
        kappa           0.41;
        E               9.8;
        value           nonuniform List<scalar> 9(0.000106279 9.57749e-05 9.67019e-05 0.000100038 0.000104108 0.000108165 0.000111532 0.000113325 0.000112534);
    }
    inlet
    {
        type            calculated;
        value           uniform 0.000167705;
    }
    outlet
    {
        type            calculated;
        value           nonuniform List<scalar> 2(0.00213445 0.00221224);
    }
}


// ************************************************************************* //
