/*--------------------------------*- C++ -*----------------------------------*\
  =========                 |
  \\      /  F ield         | OpenFOAM: The Open Source CFD Toolbox
   \\    /   O peration     | Website:  https://openfoam.org
    \\  /    A nd           | Version:  6
     \\/     M anipulation  |
\*---------------------------------------------------------------------------*/
FoamFile
{
    version     2.0;
    format      ascii;
    class       volScalarField;
    location    "40";
    object      T;
}
// * * * * * * * * * * * * * * * * * * * * * * * * * * * * * * * * * * * * * //

dimensions      [0 0 0 1 0 0 0];

internalField   nonuniform List<scalar> 
458
(
303.752
303.467
303.424
303.399
303.378
303.36
303.342
303.325
303.306
303.289
303.28
303.294
303.399
303.519
303.654
304.178
304.159
304.153
304.153
304.154
304.156
304.158
304.16
304.162
304.163
304.164
304.164
304.164
304.164
304.163
304.163
304.165
304.178
303.91
303.498
303.439
303.413
303.395
303.378
303.361
303.336
303.298
303.253
303.22
303.223
303.293
303.407
303.549
303.619
303.717
303.855
304.166
304.144
304.141
304.142
304.143
304.145
304.146
304.147
304.147
304.147
304.147
304.147
304.147
304.148
304.149
304.151
304.154
304.169
304.081
303.551
303.478
303.462
303.459
303.456
303.447
303.417
303.35
303.26
303.186
303.165
303.221
303.325
303.442
303.55
303.668
303.817
304.117
304.115
304.126
304.134
304.138
304.141
304.142
304.143
304.142
304.142
304.142
304.142
304.142
304.143
304.146
304.149
304.152
304.162
304.26
303.622
303.531
303.529
303.55
303.576
303.586
303.549
303.44
303.289
303.168
303.122
303.165
303.265
303.385
303.507
303.633
303.772
303.845
303.955
304.05
304.103
304.125
304.134
304.137
304.138
304.14
304.141
304.144
304.148
304.153
304.158
304.162
304.161
304.159
304.157
304.16
304.44
303.713
303.596
303.598
303.642
303.7
303.74
303.685
303.524
303.31
303.153
303.09
303.126
303.228
303.358
303.491
303.623
303.751
303.85
303.953
304.038
304.093
304.12
304.132
304.136
304.139
304.141
304.145
304.15
304.158
304.166
304.175
304.181
304.181
304.177
304.171
304.166
304.168
304.171
304.195
304.608
303.829
303.692
303.68
303.729
303.807
303.853
303.753
303.541
303.302
303.123
303.056
303.1
303.22
303.368
303.516
303.656
303.78
303.887
303.982
304.054
304.098
304.12
304.131
304.136
304.139
304.143
304.149
304.157
304.168
304.181
304.195
304.205
304.208
304.201
304.192
304.185
304.183
304.182
304.198
304.768
304.004
303.87
303.847
303.877
303.941
303.916
303.742
303.473
303.21
303.039
303.004
303.088
303.246
303.425
303.595
303.733
303.845
303.941
304.019
304.074
304.106
304.123
304.131
304.136
304.14
304.145
304.153
304.164
304.18
304.2
304.22
304.234
304.239
304.234
304.221
304.211
304.204
304.199
304.207
304.987
304.422
304.277
304.193
304.157
304.109
303.915
303.593
303.248
302.992
302.888
302.944
303.109
303.332
303.548
303.722
303.83
303.918
303.993
304.051
304.09
304.113
304.125
304.132
304.136
304.141
304.147
304.158
304.173
304.195
304.221
304.245
304.261
304.268
304.266
304.255
304.243
304.236
304.231
304.295
305.301
305.029
304.797
304.584
304.391
304.057
303.535
303.036
302.709
302.607
302.704
302.947
303.23
303.532
303.728
303.839
303.917
303.981
304.034
304.075
304.101
304.118
304.127
304.132
304.136
304.141
304.149
304.162
304.181
304.208
304.238
304.264
304.282
304.291
304.297
304.302
304.307
304.317
304.331
304.368
297.239
298.541
299.298
299.758
300.323
300.962
301.609
302.207
302.738
303.251
303.572
303.756
303.862
303.933
303.986
304.029
304.065
304.092
304.11
304.121
304.127
304.131
304.135
304.139
304.148
304.161
304.182
304.208
304.237
304.261
304.279
304.291
304.298
304.303
304.307
304.311
304.312
304.305
297.67
298.888
299.92
300.817
301.578
302.172
302.685
303.11
303.438
303.672
303.813
303.902
303.962
304.004
304.038
304.066
304.088
304.105
304.116
304.122
304.126
304.128
304.131
304.135
304.142
304.155
304.172
304.194
304.218
304.24
304.259
304.274
304.284
304.291
304.296
304.297
304.283
304.29
299.861
299.822
299.822
301.111
302.014
302.696
303.138
303.408
303.598
303.742
303.849
303.925
303.977
304.013
304.04
304.06
304.077
304.091
304.101
304.109
304.113
304.114
304.115
304.115
304.116
304.118
304.123
304.132
304.145
304.162
304.181
304.2
304.219
304.235
304.251
304.262
304.266
304.264
304.257
304.278
)
;

boundaryField
{
    floor
    {
        type            wallHeatTransfer;
        Tinf            uniform 305.2;
        alphaWall       uniform 0.24;
        value           nonuniform List<scalar> 
36
(
303.803
304.371
304.324
304.305
304.303
304.308
304.323
304.34
304.358
304.375
304.389
304.398
304.402
304.403
304.399
304.389
304.375
304.364
304.389
304.389
304.348
304.318
304.292
304.28
304.287
304.317
303.803
303.746
303.853
304.002
304.371
304.002
304.342
303.951
304.264
303.973
)
;
    }
    ceiling
    {
        type            wallHeatTransfer;
        Tinf            uniform 303.2;
        alphaWall       uniform 0.24;
        value           nonuniform List<scalar> 
43
(
300.065
300.023
300.018
301.221
302.079
302.726
303.141
303.394
303.569
303.7
303.796
303.862
303.905
303.935
303.958
303.975
303.989
304.001
304.009
304.014
304.016
304.017
304.017
304.016
304.016
304.019
304.023
304.032
304.043
304.059
304.077
304.096
304.114
304.131
304.149
304.161
304.165
304.16
304.149
304.161
305.202
304.955
298.03
)
;
    }
    sWall
    {
        type            wallHeatTransfer;
        Tinf            uniform 315.2;
        alphaWall       uniform 0.36;
        value           uniform 301.232;
    }
    nWall
    {
        type            wallHeatTransfer;
        Tinf            uniform 307.2;
        alphaWall       uniform 0.36;
        value           nonuniform List<scalar> 6(304.708 304.64 304.597 304.695 304.668 304.73);
    }
    sideWalls
    {
        type            empty;
    }
    glass1
    {
        type            wallHeatTransfer;
        Tinf            uniform 315.2;
        alphaWall       uniform 4.3;
        value           nonuniform List<scalar> 9(311.375 310.833 310.49 310.232 310.018 309.822 309.684 309.757 309.979);
    }
    glass2
    {
        type            wallHeatTransfer;
        Tinf            uniform 307.2;
        alphaWall       uniform 4.3;
        value           nonuniform List<scalar> 2(306.089 306.136);
    }
    sun
    {
        type            wallHeatTransfer;
        Tinf            uniform 305.2;
        alphaWall       uniform 0.24;
        value           nonuniform List<scalar> 
14
(
303.895
303.625
303.582
303.552
303.528
303.506
303.485
303.464
303.443
303.425
303.416
303.429
303.534
303.661
)
;
    }
    Table_master
    {
        type            zeroGradient;
    }
    Table_slave
    {
        type            zeroGradient;
    }
    inlet
    {
        type            fixedValue;
        value           uniform 295.15;
    }
    outlet
    {
        type            zeroGradient;
    }
}


// ************************************************************************* //
