/*--------------------------------*- C++ -*----------------------------------*\
  =========                 |
  \\      /  F ield         | OpenFOAM: The Open Source CFD Toolbox
   \\    /   O peration     | Website:  https://openfoam.org
    \\  /    A nd           | Version:  6
     \\/     M anipulation  |
\*---------------------------------------------------------------------------*/
FoamFile
{
    version     2.0;
    format      ascii;
    class       volScalarField;
    location    "33199.9999977766056";
    object      k;
}
// * * * * * * * * * * * * * * * * * * * * * * * * * * * * * * * * * * * * * //

dimensions      [0 2 -2 0 0 0 0];

internalField   nonuniform List<scalar> 
778
(
0.00158588
0.00180106
0.00178795
0.00194653
0.00209781
0.00224014
0.00237687
0.00251254
0.00265293
0.00280631
0.00295658
0.00310292
0.00325046
0.0034129
0.00358657
0.000793085
0.00162483
0.00165136
0.00157249
0.00144483
0.00128267
0.00113061
0.000998949
0.000887207
0.00079266
0.000712923
0.000644917
0.00058594
0.000533446
0.000484722
0.000436269
0.000397973
0.000326097
0.00340689
0.00643317
0.00268751
0.00274615
0.00288786
0.00305447
0.00323487
0.00343069
0.00364399
0.0038744
0.00412655
0.00438033
0.00459605
0.00470115
0.00459524
0.00429889
0.00390779
0.00358037
0.00253536
0.00281143
0.00295357
0.00289601
0.00266335
0.00226464
0.00190557
0.00160943
0.00136975
0.00117592
0.00101709
0.000885277
0.00077401
0.000681194
0.000615172
0.000574638
0.000864176
0.000523976
0.0054906
0.0127804
0.00347791
0.00321223
0.00329758
0.00345544
0.00363686
0.00384109
0.00407149
0.00432821
0.00463635
0.00501169
0.00545172
0.00596091
0.00653145
0.00685963
0.00627744
0.00538577
0.00403715
0.00416845
0.00417134
0.00397375
0.00357595
0.00266387
0.00201427
0.0015752
0.00126926
0.00104934
0.000887049
0.000764729
0.000671906
0.000603696
0.000551496
0.00054868
0.00116526
0.000677906
0.00797321
0.0217568
0.00449092
0.00339085
0.00334165
0.00343825
0.00354966
0.00366918
0.00380948
0.0039919
0.00425982
0.00464923
0.00517193
0.0058257
0.0065548
0.00713412
0.00722762
0.00724197
0.0053434
0.00555077
0.00537605
0.00512502
0.0047863
0.00434743
0.003455
0.0028581
0.00243506
0.00210923
0.00185
0.00163166
0.00143833
0.00125835
0.00107745
0.000800393
0.000659581
0.00142116
0.000821415
0.0108758
0.0336315
0.00621203
0.00342504
0.00315839
0.0031671
0.00318976
0.00321011
0.00325244
0.00336151
0.00359525
0.0039898
0.00455407
0.00527721
0.00608719
0.00681747
0.00728338
0.00764451
0.00751845
0.00665472
0.00607353
0.00557899
0.00509887
0.00462904
0.00412258
0.00366502
0.00327447
0.00293688
0.00263079
0.00234744
0.00207894
0.00181816
0.00155451
0.00122141
0.000929842
0.00118971
0.00121558
0.00116775
0.00204136
0.00186099
0.0141739
0.0475942
0.00928205
0.00348991
0.00290858
0.00282281
0.00276452
0.00269973
0.00266445
0.0027348
0.00298111
0.00341459
0.00402378
0.00479767
0.00565334
0.00646036
0.00706838
0.00740731
0.00732415
0.00679028
0.00621529
0.00563723
0.00507426
0.00455585
0.00409109
0.00369542
0.00336288
0.00307347
0.00280663
0.00255142
0.00229883
0.00204192
0.00177338
0.00147092
0.001178
0.00111209
0.00111038
0.00171987
0.00512541
0.0026588
0.0179905
0.0606012
0.0143561
0.00381905
0.00271513
0.00252938
0.00241186
0.00229417
0.00222124
0.00231173
0.00263046
0.00313936
0.00380174
0.00463013
0.00552707
0.00636507
0.00699951
0.00732737
0.00725433
0.00681818
0.00621546
0.00555478
0.00491181
0.00434268
0.00387241
0.00350037
0.00320672
0.00296182
0.00274151
0.00252932
0.0023136
0.00208704
0.00184482
0.00158262
0.00132748
0.0011595
0.00109124
0.00156491
0.00631369
0.00370184
0.0216391
0.0704779
0.0214306
0.0051005
0.00274239
0.00237166
0.0022101
0.00208202
0.00202649
0.00221973
0.00265004
0.0032309
0.00393644
0.00477273
0.00569631
0.00657053
0.00722117
0.00751242
0.00738363
0.00689596
0.00619795
0.00542659
0.00469116
0.0040642
0.00357427
0.00321239
0.00294767
0.0027411
0.00256456
0.00239633
0.00222251
0.00203548
0.0018319
0.001613
0.0013981
0.00122932
0.00115195
0.00212465
0.0144669
0.00638755
0.022832
0.0694973
0.0325272
0.0110491
0.004064
0.00258652
0.00223527
0.00210305
0.00219021
0.00251302
0.0030011
0.0036021
0.00433123
0.00520958
0.0061806
0.00708272
0.00771319
0.00792048
0.00766314
0.00702457
0.0061643
0.00524746
0.00440657
0.00372172
0.00321618
0.00286859
0.00263544
0.00246907
0.00233657
0.00221187
0.00207992
0.0019335
0.00177038
0.00159358
0.00141802
0.00128382
0.00131872
0.00399632
0.0289999
0.00811
0.021918
0.0516426
0.0336409
0.0174258
0.00858063
0.00475528
0.00325966
0.00272985
0.00285354
0.00321189
0.0036733
0.00424613
0.0049928
0.00593309
0.00696707
0.00788046
0.00843621
0.00848033
0.00800128
0.00712177
0.00603905
0.00495172
0.0040096
0.00328943
0.00279707
0.00248808
0.00230184
0.00218405
0.00209635
0.00201182
0.00191684
0.0018058
0.00167792
0.00153735
0.00139755
0.00130723
0.00162089
0.00779678
0.0268317
0.00855463
0.0192343
0.0394439
0.0302382
0.0195618
0.0121771
0.0079346
0.00571461
0.00466816
0.00436209
0.00440015
0.00465247
0.00514322
0.00592935
0.00697151
0.00807744
0.00895463
0.00933697
0.00909309
0.00827059
0.00705719
0.00570722
0.00445572
0.00345886
0.00276696
0.00234724
0.00211413
0.00198956
0.00192274
0.00187331
0.00181982
0.00175223
0.00166691
0.00156481
0.00145286
0.00135017
0.00135791
0.00219986
0.00862931
0.0247767
0.0085897
0.0159511
0.0315907
0.026652
0.0195372
0.0139734
0.0102814
0.00802486
0.00674896
0.00604777
0.00573019
0.00578097
0.00626881
0.00719824
0.00840183
0.00955061
0.0102719
0.0103063
0.0095927
0.00828398
0.0066599
0.0050485
0.00371476
0.00278991
0.00223236
0.0019532
0.00181344
0.00174473
0.00171138
0.00168436
0.00164906
0.00159806
0.00152862
0.00144307
0.00135418
0.00130576
0.00162305
0.00361224
0.00956552
0.0213064
0.00821035
0.0132669
0.0256712
0.0233504
0.0186888
0.0145821
0.0115863
0.00954159
0.00820813
0.007299
0.00683894
0.00695403
0.00770844
0.00895852
0.0103401
0.0113851
0.0116961
0.0111078
0.00969832
0.00778557
0.00575449
0.00402199
0.00283155
0.00219269
0.00186112
0.00169687
0.00161519
0.00157479
0.00155383
0.00153356
0.00150411
0.0014599
0.00139912
0.001327
0.00126949
0.00134981
0.00217663
0.00494028
0.0102005
0.0170519
0.00761464
0.0133458
0.0224166
0.0220557
0.0177587
0.0143912
0.0118927
0.0100826
0.00876831
0.007918
0.00777243
0.00846392
0.00984672
0.0114929
0.0128385
0.0133829
0.0128436
0.0112909
0.00899267
0.00651901
0.00430708
0.00296155
0.00222529
0.00185626
0.00166831
0.00156741
0.0015094
0.00147414
0.0014502
0.00142543
0.00139317
0.0013499
0.00129595
0.00124082
0.00122434
0.00140806
0.00237832
0.00514528
0.0100273
0.0164719
0.00732482
0.0108732
0.0117631
0.0129236
0.0125534
0.011376
0.0100767
0.00894931
0.00820613
0.00830449
0.00941048
0.011271
0.013322
0.0149061
0.0154965
0.0148326
0.0129005
0.0101815
0.00703482
0.00464934
0.00314548
0.0023583
0.00197063
0.00177034
0.00165018
0.00156645
0.00150292
0.00145362
0.00141515
0.00137905
0.00134162
0.00130373
0.00127158
0.00126053
0.00131152
0.00155256
0.00238001
0.00467002
0.00928424
0.0160186
0.0083589
0.00354576
0.00482833
0.00600439
0.00661294
0.00729321
0.00880588
0.0113138
0.0141237
0.0165158
0.0179361
0.0180356
0.0167404
0.0142514
0.0106526
0.00736211
0.00486255
0.00335762
0.00259019
0.002229
0.00204179
0.00191996
0.0018213
0.00173205
0.00165027
0.00157985
0.00152715
0.00149164
0.00147704
0.00149346
0.00155186
0.00166157
0.00184409
0.00218001
0.00290961
0.00468405
0.00999452
0.0144926
0.00882114
0.00444557
0.00630095
0.0081251
0.0110449
0.0147217
0.0181704
0.0203872
0.0214261
0.0213338
0.0201106
0.0175866
0.0141373
0.0105031
0.00723286
0.00492321
0.00359061
0.00294678
0.00265029
0.00249504
0.00239242
0.00231007
0.00223543
0.00216416
0.00209812
0.00204527
0.00201896
0.00203018
0.00209433
0.00222629
0.00243449
0.00272221
0.00310393
0.00364217
0.00451694
0.00623815
0.011487
0.0146995
0.00915317
0.0150735
0.024418
0.0180885
0.0144114
0.0170471
0.0207508
0.0228798
0.0235692
0.023093
0.0217191
0.0196933
0.0170537
0.0139013
0.0106172
0.00770578
0.00556191
0.00431792
0.00371267
0.00342254
0.0032649
0.00317106
0.00311626
0.00308609
0.0030669
0.00304729
0.00302405
0.00300767
0.00301807
0.00307797
0.00320756
0.00342184
0.00373192
0.00414776
0.00469078
0.0054218
0.00649443
0.00828763
0.0119749
0.0161996
0.00840469
0.0138094
0.0170469
0.0178918
0.0207987
0.0217441
0.0221668
0.0211699
0.0193537
0.0172291
0.0150481
0.0129143
0.0108806
0.00900699
0.00740107
0.00616797
0.00529999
0.00471021
0.00432572
0.00407963
0.00394057
0.00389517
0.00393164
0.00403238
0.00417281
0.0043245
0.00446171
0.00456989
0.00466037
0.00477443
0.00494063
0.00518117
0.00551729
0.00597611
0.0066041
0.00748414
0.00873279
0.010502
0.0136905
0.0187235
0.00812726
0.01214
0.0089094
0.00882252
0.00934332
0.00978616
0.00921231
0.00814595
0.00698808
0.00592443
0.00500439
0.00422145
0.00356368
0.00303387
0.00264404
0.0023972
0.00227969
0.00224404
0.00225457
0.00230055
0.00237533
0.00247174
0.00258159
0.00269704
0.00281224
0.00292429
0.00303378
0.00314481
0.00326234
0.00339287
0.00354421
0.00372171
0.0039291
0.00417072
0.00445731
0.00481879
0.00531651
0.0060339
0.00701522
0.00820047
0.00741817
)
;

boundaryField
{
    floor
    {
        type            kqRWallFunction;
        value           nonuniform List<scalar> 
36
(
0.00358657
0.000793085
0.00162483
0.00165136
0.00157249
0.00144483
0.00128267
0.00113061
0.000998949
0.000887207
0.00079266
0.000712923
0.000644917
0.00058594
0.000533446
0.000484722
0.000436269
0.000397973
0.000326097
0.000326097
0.000523976
0.000677906
0.000821415
0.00116775
0.00204136
0.00186099
0.00358657
0.00429889
0.00390779
0.00358037
0.000793085
0.00358037
0.00253536
0.00538577
0.00403715
0.0053434
)
;
    }
    ceiling
    {
        type            kqRWallFunction;
        value           nonuniform List<scalar> 
43
(
0.01214
0.0089094
0.00882252
0.00934332
0.00978616
0.00921231
0.00814595
0.00698808
0.00592443
0.00500439
0.00422145
0.00356368
0.00303387
0.00264404
0.0023972
0.00227969
0.00224404
0.00225457
0.00230055
0.00237533
0.00247174
0.00258159
0.00269704
0.00281224
0.00292429
0.00303378
0.00314481
0.00326234
0.00339287
0.00354421
0.00372171
0.0039291
0.00417072
0.00445731
0.00481879
0.00531651
0.0060339
0.00701522
0.00820047
0.00741817
0.0108732
0.0117631
0.00444557
)
;
    }
    sWall
    {
        type            kqRWallFunction;
        value           nonuniform List<scalar> 9(0.021918 0.0192343 0.0159511 0.0132669 0.0133458 0.0108732 0.0150735 0.0138094 0.01214);
    }
    nWall
    {
        type            kqRWallFunction;
        value           nonuniform List<scalar> 
14
(
0.00186099
0.0026588
0.00370184
0.00855463
0.0085897
0.00821035
0.00761464
0.00732482
0.0083589
0.00882114
0.00915317
0.00840469
0.00812726
0.00741817
)
;
    }
    sideWalls
    {
        type            empty;
    }
    glass1
    {
        type            kqRWallFunction;
        value           nonuniform List<scalar> 9(0.00158588 0.00340689 0.0054906 0.00797321 0.0108758 0.0141739 0.0179905 0.0216391 0.022832);
    }
    glass2
    {
        type            kqRWallFunction;
        value           nonuniform List<scalar> 2(0.00638755 0.00811);
    }
    sun
    {
        type            kqRWallFunction;
        value           nonuniform List<scalar> 
14
(
0.00158588
0.00180106
0.00178795
0.00194653
0.00209781
0.00224014
0.00237687
0.00251254
0.00265293
0.00280631
0.00295658
0.00310292
0.00325046
0.0034129
)
;
    }
    Table_master
    {
        type            kqRWallFunction;
        value           nonuniform List<scalar> 9(0.00266387 0.00201427 0.0015752 0.00126926 0.00104934 0.000887049 0.000764729 0.000671906 0.000603696);
    }
    Table_slave
    {
        type            kqRWallFunction;
        value           nonuniform List<scalar> 9(0.003455 0.0028581 0.00243506 0.00210923 0.00185 0.00163166 0.00143833 0.00125835 0.00107745);
    }
    inlet
    {
        type            turbulentIntensityKineticEnergyInlet;
        intensity       0.05;
        value           uniform 0.0009375;
    }
    outlet
    {
        type            zeroGradient;
    }
}


// ************************************************************************* //
