/*--------------------------------*- C++ -*----------------------------------*\
  =========                 |
  \\      /  F ield         | OpenFOAM: The Open Source CFD Toolbox
   \\    /   O peration     | Website:  https://openfoam.org
    \\  /    A nd           | Version:  6
     \\/     M anipulation  |
\*---------------------------------------------------------------------------*/
FoamFile
{
    version     2.0;
    format      ascii;
    class       volScalarField;
    location    "33199.9999977766056";
    object      T;
}
// * * * * * * * * * * * * * * * * * * * * * * * * * * * * * * * * * * * * * //

dimensions      [0 0 0 1 0 0 0];

internalField   nonuniform List<scalar> 
778
(
302.565
302.246
302.23
302.225
302.221
302.216
302.212
302.207
302.202
302.198
302.191
302.184
302.175
302.164
302.154
302.223
302.094
302.086
302.085
302.087
302.091
302.095
302.1
302.105
302.11
302.115
302.12
302.125
302.13
302.135
302.142
302.15
302.182
302.778
302.277
302.245
302.244
302.245
302.245
302.245
302.243
302.239
302.234
302.225
302.211
302.192
302.166
302.138
302.119
302.105
302.101
302.082
302.063
302.056
302.053
302.053
302.054
302.056
302.057
302.059
302.061
302.063
302.065
302.068
302.072
302.079
302.09
302.106
302.158
302.994
302.324
302.272
302.278
302.289
302.299
302.307
302.313
302.315
302.313
302.304
302.284
302.254
302.212
302.167
302.127
302.095
302.075
302.048
302.041
302.039
302.039
302.04
302.041
302.042
302.044
302.045
302.046
302.047
302.048
302.05
302.052
302.057
302.067
302.084
302.145
303.204
302.385
302.303
302.315
302.336
302.358
302.378
302.395
302.407
302.411
302.403
302.378
302.335
302.274
302.207
302.146
302.097
302.062
302.047
302.036
302.032
302.032
302.033
302.034
302.035
302.035
302.036
302.036
302.036
302.037
302.037
302.037
302.037
302.043
302.053
302.071
302.137
303.405
302.459
302.335
302.349
302.38
302.414
302.448
302.479
302.503
302.517
302.513
302.484
302.426
302.341
302.248
302.164
302.099
302.057
302.035
302.028
302.026
302.028
302.031
302.034
302.036
302.037
302.038
302.039
302.039
302.039
302.039
302.038
302.038
302.039
302.045
302.061
302.114
302.125
302.138
302.236
303.594
302.544
302.372
302.377
302.415
302.458
302.503
302.547
302.587
302.613
302.617
302.587
302.512
302.4
302.28
302.174
302.095
302.05
302.028
302.021
302.022
302.027
302.032
302.036
302.04
302.042
302.043
302.043
302.043
302.043
302.042
302.041
302.04
302.039
302.042
302.052
302.085
302.098
302.112
302.248
303.757
302.639
302.42
302.401
302.439
302.485
302.535
302.585
302.635
302.675
302.692
302.664
302.575
302.436
302.292
302.172
302.087
302.038
302.017
302.014
302.019
302.028
302.036
302.042
302.046
302.048
302.049
302.049
302.048
302.047
302.045
302.044
302.042
302.04
302.04
302.047
302.067
302.079
302.096
302.229
303.91
302.783
302.516
302.436
302.457
302.499
302.545
302.592
302.642
302.701
302.732
302.7
302.597
302.445
302.285
302.154
302.065
302.018
302.003
302.007
302.019
302.033
302.044
302.051
302.055
302.057
302.057
302.055
302.053
302.051
302.049
302.046
302.043
302.041
302.04
302.043
302.055
302.067
302.107
302.411
304.118
303.232
302.843
302.588
302.504
302.516
302.552
302.593
302.65
302.719
302.754
302.712
302.589
302.417
302.246
302.111
302.028
301.992
301.989
302.004
302.024
302.042
302.055
302.063
302.066
302.066
302.064
302.061
302.058
302.055
302.051
302.048
302.045
302.042
302.041
302.042
302.05
302.073
302.157
302.573
304.103
303.535
303.162
302.862
302.686
302.617
302.609
302.634
302.703
302.773
302.786
302.707
302.545
302.349
302.171
302.045
301.979
301.963
301.978
302.007
302.036
302.058
302.071
302.076
302.076
302.074
302.07
302.065
302.061
302.057
302.052
302.049
302.045
302.042
302.041
302.043
302.058
302.163
302.322
302.572
304.107
303.67
303.355
303.095
302.915
302.816
302.778
302.787
302.836
302.865
302.815
302.665
302.45
302.231
302.06
301.96
301.926
301.94
301.979
302.022
302.057
302.079
302.088
302.089
302.085
302.079
302.073
302.067
302.062
302.057
302.053
302.049
302.045
302.043
302.042
302.048
302.091
302.224
302.363
302.577
304.139
303.757
303.493
303.282
303.128
303.033
302.991
302.99
302.994
302.938
302.78
302.536
302.272
302.054
301.918
301.868
301.883
301.935
301.997
302.051
302.087
302.104
302.105
302.098
302.09
302.081
302.074
302.067
302.062
302.057
302.053
302.049
302.045
302.043
302.045
302.068
302.162
302.299
302.416
302.592
304.204
303.876
303.634
303.45
303.319
303.233
303.186
303.158
303.071
302.873
302.577
302.256
301.99
301.826
301.769
301.795
301.87
301.96
302.04
302.096
302.123
302.127
302.118
302.106
302.094
302.084
302.075
302.069
302.063
302.058
302.054
302.05
302.047
302.047
302.055
302.104
302.232
302.38
302.491
302.618
304.14
303.889
303.681
303.539
303.424
303.333
303.256
303.126
302.851
302.469
302.081
301.784
301.624
301.594
301.66
301.779
301.91
302.027
302.107
302.149
302.156
302.147
302.133
302.118
302.104
302.092
302.082
302.074
302.068
302.063
302.059
302.057
302.055
302.057
302.069
302.122
302.247
302.399
302.514
302.628
304.28
304.088
303.618
303.297
303.094
302.929
302.737
302.368
301.895
301.496
301.266
301.214
301.301
301.468
301.666
301.86
302.017
302.13
302.181
302.194
302.188
302.174
302.158
302.142
302.126
302.112
302.1
302.091
302.084
302.08
302.078
302.078
302.08
302.085
302.097
302.134
302.229
302.371
302.472
302.561
294.643
296.447
298.146
299.052
299.398
299.583
299.829
300.154
300.524
300.902
301.262
301.577
301.835
302.044
302.163
302.222
302.241
302.24
302.231
302.219
302.205
302.19
302.174
302.158
302.144
302.133
302.127
302.126
302.129
302.135
302.144
302.152
302.161
302.181
302.233
302.351
302.429
302.521
294.924
295.752
296.652
297.517
298.288
299.008
299.688
300.299
300.82
301.258
301.634
301.91
302.096
302.215
302.274
302.297
302.302
302.301
302.296
302.289
302.28
302.267
302.253
302.237
302.222
302.212
302.208
302.21
302.219
302.233
302.248
302.261
302.271
302.282
302.305
302.367
302.421
302.516
299.76
298.688
297.307
296.76
297.518
298.521
299.42
300.151
300.723
301.162
301.519
301.807
302.03
302.186
302.282
302.335
302.358
302.368
302.373
302.376
302.377
302.375
302.368
302.358
302.345
302.33
302.316
302.307
302.303
302.307
302.318
302.335
302.356
302.377
302.397
302.413
302.43
302.451
302.476
302.555
300.122
299.997
299.411
298.891
299.297
300.016
300.676
301.192
301.575
301.852
302.054
302.2
302.3
302.363
302.398
302.417
302.428
302.438
302.445
302.452
302.455
302.454
302.449
302.439
302.427
302.413
302.401
302.392
302.389
302.392
302.401
302.416
302.434
302.455
302.477
302.499
302.52
302.533
302.534
302.606
300.842
300.841
300.903
300.994
301.149
301.492
301.812
302.052
302.217
302.326
302.396
302.441
302.468
302.484
302.495
302.502
302.51
302.519
302.527
302.533
302.536
302.534
302.529
302.521
302.512
302.503
302.496
302.491
302.491
302.495
302.504
302.516
302.533
302.553
302.576
302.6
302.621
302.636
302.643
302.667
)
;

boundaryField
{
    floor
    {
        type            wallHeatTransfer;
        Tinf            uniform 305.2;
        alphaWall       uniform 0.36;
        value           nonuniform List<scalar> 
36
(
302.544
302.868
302.622
302.613
302.621
302.639
302.665
302.693
302.722
302.751
302.779
302.806
302.832
302.858
302.884
302.91
302.94
302.968
303.04
303.04
302.909
302.841
302.793
302.711
302.619
302.717
302.544
302.487
302.488
302.497
302.868
302.497
302.535
302.417
302.434
302.394
)
;
    }
    ceiling
    {
        type            wallHeatTransfer;
        Tinf            uniform 303.2;
        alphaWall       uniform 0.36;
        value           nonuniform List<scalar> 
43
(
301.029
301.053
301.11
301.188
301.327
301.644
301.942
302.166
302.321
302.424
302.493
302.538
302.568
302.587
302.599
302.608
302.615
302.622
302.629
302.633
302.633
302.63
302.624
302.616
302.607
302.598
302.59
302.585
302.584
302.586
302.591
302.601
302.613
302.629
302.647
302.666
302.682
302.692
302.695
302.719
304.19
304.016
295.884
)
;
    }
    sWall
    {
        type            wallHeatTransfer;
        Tinf            uniform 315.2;
        alphaWall       uniform 0.54;
        value           nonuniform List<scalar> 9(305.123 305.181 305.292 305.436 305.376 305.601 301.39 301.77 302.494);
    }
    nWall
    {
        type            wallHeatTransfer;
        Tinf            uniform 308.2;
        alphaWall       uniform 0.54;
        value           nonuniform List<scalar> 
14
(
303.581
303.44
303.295
303.313
303.316
303.342
303.386
303.405
303.31
303.26
303.246
303.303
303.358
303.436
)
;
    }
    sideWalls
    {
        type            empty;
    }
    glass1
    {
        type            wallHeatTransfer;
        Tinf            uniform 315.2;
        alphaWall       uniform 4.3;
        value           nonuniform List<scalar> 9(311.626 310.812 310.3 309.912 309.605 309.359 309.142 308.996 309.046);
    }
    glass2
    {
        type            wallHeatTransfer;
        Tinf            uniform 308.2;
        alphaWall       uniform 4.3;
        value           nonuniform List<scalar> 2(305.767 305.693);
    }
    sun
    {
        type            wallHeatTransfer;
        Tinf            uniform 305.2;
        alphaWall       uniform 0.36;
        value           nonuniform List<scalar> 
14
(
303.018
302.731
302.719
302.7
302.684
302.669
302.656
302.643
302.631
302.618
302.605
302.591
302.576
302.56
)
;
    }
    Table_master
    {
        type            zeroGradient;
    }
    Table_slave
    {
        type            zeroGradient;
    }
    inlet
    {
        type            fixedValue;
        value           uniform 293.15;
    }
    outlet
    {
        type            zeroGradient;
    }
}


// ************************************************************************* //
