/*--------------------------------*- C++ -*----------------------------------*\
  =========                 |
  \\      /  F ield         | OpenFOAM: The Open Source CFD Toolbox
   \\    /   O peration     | Website:  https://openfoam.org
    \\  /    A nd           | Version:  6
     \\/     M anipulation  |
\*---------------------------------------------------------------------------*/
FoamFile
{
    version     2.0;
    format      ascii;
    class       volScalarField;
    location    "40499.9999992638113";
    object      alphat;
}
// * * * * * * * * * * * * * * * * * * * * * * * * * * * * * * * * * * * * * //

dimensions      [1 -1 -1 0 0 0 0];

internalField   nonuniform List<scalar> 
778
(
0.00104098
0.00111051
0.0011065
0.00115453
0.00119855
0.00123855
0.0012758
0.00131171
0.00134788
0.00138633
0.00142301
0.00145786
0.0014922
0.00152911
0.00156762
0.000736937
0.0010555
0.00106415
0.00103847
0.000995431
0.000937867
0.000880464
0.000827568
0.000779889
0.000737155
0.00069909
0.000664905
0.000633764
0.000604696
0.000576404
0.00054682
0.000522235
0.000472667
0.00152465
0.00300713
0.00263919
0.00304618
0.00334141
0.00365442
0.0039667
0.00425458
0.00448644
0.0046216
0.00470117
0.00466881
0.00443625
0.00385961
0.002819
0.00171649
0.00163661
0.00156656
0.00131831
0.00224605
0.00311354
0.00362618
0.00365038
0.00288078
0.00246373
0.00217478
0.00195546
0.00178092
0.00163198
0.00150037
0.00137793
0.00125816
0.00115067
0.00105798
0.00119136
0.000599213
0.00193412
0.0041985
0.00311334
0.00445314
0.00497559
0.00541766
0.00581919
0.0061727
0.00647238
0.00670759
0.00693553
0.00717553
0.00739622
0.00752775
0.00744109
0.00681303
0.00498268
0.00192153
0.00166357
0.00355893
0.00496642
0.00563247
0.00512235
0.00135181
0.00117555
0.00103956
0.000933137
0.000848417
0.000780015
0.00072421
0.000678817
0.000643425
0.000707378
0.000832008
0.00131682
0.000681604
0.00232907
0.00565789
0.002979
0.00500693
0.00578036
0.00619398
0.00649804
0.00672303
0.00689111
0.00702764
0.00722178
0.00754982
0.00802846
0.00863019
0.00923488
0.00953257
0.00895037
0.0066743
0.00191392
0.00443549
0.00659558
0.00769201
0.00796233
0.00679723
0.00153919
0.00140003
0.00129235
0.00120281
0.0011265
0.00105794
0.000993287
0.000929073
0.000859725
0.000803245
0.000832466
0.00142507
0.000750402
0.00271832
0.00748967
0.0030053
0.00475962
0.00594881
0.00630133
0.00642904
0.00643369
0.00636971
0.00631334
0.00639482
0.00671356
0.00729824
0.00812603
0.00908602
0.00997034
0.0105319
0.0105264
0.00944816
0.00961431
0.00983388
0.00986378
0.00966273
0.00904423
0.0071975
0.00621747
0.00554629
0.00500063
0.00446578
0.00394779
0.003441
0.00293475
0.00241447
0.00185479
0.00141561
0.00141302
0.00111788
0.000894408
0.00117548
0.00112633
0.00310124
0.00953959
0.00353772
0.0040136
0.00569956
0.00609066
0.00605891
0.00584051
0.00552861
0.00527151
0.005266
0.00559964
0.00626552
0.00722501
0.00834831
0.00947028
0.0104263
0.0110371
0.0111487
0.0110366
0.0108399
0.0105612
0.0102037
0.00974938
0.00908685
0.00844879
0.00786958
0.00730934
0.00670482
0.00605943
0.00537005
0.00463065
0.00383651
0.00299402
0.00223187
0.00167584
0.00130044
0.00145742
0.0025278
0.00134815
0.00349196
0.0114347
0.00471381
0.00328802
0.00512114
0.00576099
0.00568948
0.00533629
0.00482425
0.00437373
0.00436053
0.00478111
0.00554266
0.00661443
0.00783518
0.00904379
0.0100844
0.0108299
0.0111729
0.0111461
0.0109003
0.0105285
0.0101032
0.00967929
0.00926963
0.0088939
0.0085411
0.00816436
0.0077097
0.00716256
0.00651463
0.00576265
0.00490965
0.00397799
0.00306849
0.00222021
0.00163476
0.00146039
0.00256124
0.00158751
0.00382769
0.0128677
0.006426
0.00313046
0.00405688
0.00510713
0.0052531
0.00496274
0.00435795
0.00374478
0.00388328
0.00443908
0.00529003
0.00639421
0.00766141
0.00892661
0.0100064
0.0107571
0.0110981
0.0110536
0.0107364
0.0102689
0.00976649
0.00932122
0.00897813
0.00873309
0.00854216
0.00833461
0.00804613
0.00764234
0.00710708
0.00643699
0.00563882
0.00473747
0.00380275
0.00285851
0.00200857
0.00132707
0.00368561
0.0020702
0.00392898
0.0121743
0.00794933
0.00404616
0.00275039
0.00337075
0.00394355
0.00399132
0.00352389
0.00342499
0.00378061
0.00443381
0.00535311
0.00652324
0.00785083
0.00915497
0.0102313
0.0109244
0.0111681
0.0110009
0.0105413
0.00993873
0.00934133
0.00886506
0.00856283
0.00841441
0.00834718
0.00826748
0.00810187
0.00781052
0.00737742
0.00680079
0.00608862
0.00526202
0.00435805
0.0033462
0.00200213
0.00160548
0.00558217
0.00235242
0.00384958
0.00981224
0.00820743
0.00555241
0.00366782
0.00284072
0.00269098
0.00281739
0.00305382
0.00343053
0.00396473
0.00469946
0.00569858
0.0069595
0.00835899
0.00968162
0.0107021
0.0112647
0.0113239
0.0109466
0.0102822
0.00951809
0.00883681
0.00837054
0.00815691
0.0081317
0.00817779
0.0081769
0.00806974
0.00783372
0.00746103
0.00695119
0.00630951
0.00554309
0.00461508
0.00325649
0.00158404
0.00268616
0.0057593
0.00240327
0.00360603
0.00838497
0.00793382
0.00635254
0.00489006
0.0039376
0.00346673
0.0033606
0.00355612
0.00391568
0.00443784
0.00521305
0.00631593
0.00769802
0.0091687
0.0104636
0.0113435
0.0116714
0.0114416
0.0107692
0.00985602
0.00894275
0.00825022
0.00790301
0.0078625
0.00797569
0.00809032
0.0080924
0.00797941
0.00775039
0.00740023
0.00692405
0.00631811
0.00555512
0.00442302
0.00254219
0.00169805
0.0033871
0.00559807
0.0023854
0.00328335
0.00755886
0.00765164
0.00672281
0.00572024
0.00496531
0.00452092
0.00436213
0.00440297
0.00462075
0.00510069
0.00596682
0.00724192
0.00877282
0.010275
0.0114405
0.0120421
0.0119928
0.0113556
0.0103183
0.00916246
0.0081991
0.00765547
0.00754454
0.00763713
0.00778693
0.00788739
0.00786012
0.00772945
0.00749751
0.00715542
0.00669064
0.00608397
0.00524071
0.00362212
0.0017923
0.00220182
0.00374378
0.0051299
0.00231208
0.0029936
0.00675846
0.00730331
0.00686591
0.00622335
0.00568322
0.0053241
0.00514912
0.00509837
0.00528574
0.0058959
0.00702826
0.00857161
0.010229
0.0116338
0.0124787
0.0126009
0.012006
0.0108619
0.00945868
0.00819246
0.00738201
0.00702256
0.00697008
0.00706462
0.00720111
0.00729585
0.00727521
0.00714835
0.00691521
0.00656451
0.00608016
0.00543004
0.00444904
0.00276321
0.00174873
0.00252637
0.00391283
0.00483989
0.00223825
0.00300322
0.0067069
0.00746036
0.00694721
0.00642754
0.00600191
0.00569526
0.00549751
0.00549272
0.00594665
0.00702311
0.00862784
0.0104373
0.0120368
0.0130597
0.0132882
0.0126954
0.0114156
0.00977443
0.00819103
0.00704585
0.00636577
0.00603088
0.00593177
0.00597929
0.00609322
0.0061932
0.00618954
0.00605932
0.00579813
0.00539639
0.00485609
0.00419271
0.00338435
0.00238744
0.00185719
0.00261797
0.00405432
0.0054577
0.00227712
0.00270947
0.00281963
0.00416526
0.00489757
0.0051253
0.00513065
0.00508313
0.00518194
0.00581609
0.0071595
0.00904238
0.0110689
0.0127996
0.0138709
0.0140697
0.0133527
0.011892
0.00996052
0.00812043
0.00668269
0.00570755
0.0051275
0.00483573
0.00471809
0.00469936
0.00473145
0.00476105
0.00470858
0.004518
0.00418653
0.00373359
0.00322795
0.00276855
0.0024218
0.00218734
0.00214644
0.00280057
0.00445394
0.00549278
0.00241309
0.000965379
0.00174116
0.0026718
0.003418
0.00428547
0.00575916
0.00792093
0.0103093
0.012472
0.0140793
0.0149119
0.0148302
0.01384
0.0120409
0.00990156
0.00787121
0.00625522
0.00515523
0.00452779
0.00419532
0.00400495
0.00387985
0.00378833
0.00371226
0.00362653
0.00348953
0.00326389
0.00296644
0.00265841
0.00242497
0.00232003
0.0023437
0.00248139
0.00277564
0.00345521
0.00526892
0.00578719
0.00244681
0.00178724
0.00247342
0.00360071
0.00561232
0.00833635
0.0110521
0.013145
0.0146418
0.0155345
0.0157685
0.0152361
0.0138315
0.0117694
0.00944734
0.00732028
0.00571221
0.00474002
0.00423651
0.00396607
0.00379421
0.00367045
0.00357764
0.00350602
0.00344289
0.00336827
0.00325753
0.00310581
0.00294221
0.00281575
0.00277531
0.00284186
0.00300662
0.0032624
0.00364804
0.00429894
0.00575867
0.00629472
0.00246281
0.00323861
0.00785498
0.00724955
0.00649963
0.0082558
0.0109912
0.0132887
0.0148268
0.0156236
0.0158049
0.0154717
0.0145864
0.0131099
0.0111156
0.0088894
0.00686327
0.00543551
0.00464866
0.00423762
0.00398753
0.00381088
0.00368565
0.00360981
0.00358123
0.00359019
0.00361753
0.00363671
0.00362297
0.00358666
0.00355767
0.00355953
0.00361076
0.00371822
0.00387346
0.00406024
0.00427063
0.00451953
0.00483922
0.00496883
0.00234698
0.00309576
0.00598458
0.00774441
0.0099054
0.0109921
0.0121087
0.0127534
0.0129004
0.0126409
0.0120401
0.0111266
0.00992105
0.00849564
0.00703335
0.00579986
0.00494642
0.00438787
0.00402332
0.00376039
0.00356119
0.00342119
0.0033473
0.00334514
0.00341231
0.00353471
0.00368519
0.00382579
0.00391685
0.00397284
0.00402895
0.00410627
0.00421568
0.00436001
0.00453668
0.00474297
0.00497996
0.00525131
0.00558324
0.00558523
0.00231455
0.00289511
0.0024801
0.00246715
0.00253776
0.00259531
0.00251403
0.0023595
0.0021805
0.00200253
0.00183562
0.00168257
0.00154553
0.00142917
0.00133994
0.00128121
0.00125032
0.00124132
0.0012424
0.0012514
0.00126814
0.00129227
0.0013225
0.00135667
0.00139241
0.00142784
0.00146194
0.0014948
0.00152759
0.00156089
0.00159674
0.00163746
0.00168462
0.00173899
0.00180045
0.00186766
0.00193798
0.0020123
0.00211661
0.00227747
0.00225001
)
;

boundaryField
{
    floor
    {
        type            compressible::alphatWallFunction;
        Prt             0.85;
        value           nonuniform List<scalar> 
36
(
0.000219921
0.000104499
0.000149955
0.000151164
0.000147569
0.000141521
0.000133384
0.000125212
0.000117625
0.000110738
0.000104522
9.89493e-05
9.3913e-05
8.92979e-05
8.49651e-05
8.07234e-05
7.62603e-05
7.2529e-05
6.49388e-05
6.49379e-05
8.41459e-05
9.6378e-05
0.000106455
0.000127205
0.000166623
0.000159835
0.000219919
0.000239736
0.000229126
0.000219776
0.000104498
0.000219773
0.000186243
0.000266718
0.000232705
0.000265723
)
;
    }
    ceiling
    {
        type            compressible::alphatWallFunction;
        Prt             0.85;
        value           nonuniform List<scalar> 
43
(
0.000391222
0.00033883
0.000337186
0.000346174
0.000353488
0.000343204
0.00032352
0.00030053
0.00027746
0.000255613
0.000235388
0.000217109
0.000201456
0.000189367
0.000181369
0.000177145
0.000175916
0.000176062
0.00017729
0.000179573
0.000182867
0.000186994
0.000191656
0.000196529
0.00020135
0.000205982
0.000210433
0.000214858
0.000219338
0.00022414
0.000229576
0.000235854
0.000243073
0.000251212
0.000260085
0.000269329
0.00027901
0.00029238
0.000313018
0.000309765
0.000368219
0.000382065
0.000248597
)
;
    }
    sWall
    {
        type            compressible::alphatWallFunction;
        Prt             0.85;
        value           nonuniform List<scalar> 9(0.000507618 0.000477906 0.000438228 0.000402261 0.000403453 0.000366644 0.000432059 0.000414396 0.000389471);
    }
    nWall
    {
        type            compressible::alphatWallFunction;
        Prt             0.85;
        value           nonuniform List<scalar> 
14
(
0.000159388
0.000189857
0.000222094
0.000328473
0.000326136
0.000316719
0.000307318
0.000312647
0.000329778
0.000334058
0.00033585
0.000321128
0.00031732
0.000309085
)
;
    }
    sideWalls
    {
        type            empty;
    }
    glass1
    {
        type            compressible::alphatWallFunction;
        Prt             0.85;
        value           nonuniform List<scalar> 9(0.000143926 0.000209133 0.000262689 0.000313296 0.000362367 0.000409987 0.000457992 0.000498848 0.000511221);
    }
    glass2
    {
        type            compressible::alphatWallFunction;
        Prt             0.85;
        value           nonuniform List<scalar> 2(0.000283376 0.000319685);
    }
    sun
    {
        type            compressible::alphatWallFunction;
        Prt             0.85;
        value           nonuniform List<scalar> 
14
(
0.00014796
0.000157642
0.000157082
0.000163749
0.000169833
0.000175337
0.000180445
0.000185355
0.000190284
0.000195506
0.000200474
0.00020518
0.000209805
0.000214763
)
;
    }
    Table_master
    {
        type            compressible::alphatWallFunction;
        Prt             0.85;
        value           nonuniform List<scalar> 9(0.000191075 0.000166907 0.000147978 0.000132963 0.000120866 0.000110995 0.000102866 9.61967e-05 9.09597e-05);
    }
    Table_slave
    {
        type            compressible::alphatWallFunction;
        Prt             0.85;
        value           nonuniform List<scalar> 9(0.000216384 0.000197626 0.000182968 0.000170674 0.000160112 0.000150554 0.000141475 0.000132388 0.000122492);
    }
    inlet
    {
        type            fixedValue;
        value           uniform 1.94e-05;
    }
    outlet
    {
        type            zeroGradient;
    }
}


// ************************************************************************* //
