/*--------------------------------*- C++ -*----------------------------------*=========                 |
  \      /  F ield         | OpenFOAM: The Open Source CFD Toolbox
   \    /   O peration     | Website:  https://openfoam.org
    \  /    A nd           | Version:  6
     \/     M anipulation  |
\*---------------------------------------------------------------------------*/
FoamFile
{
    version     2.0;
    format      ascii;
    class       volScalarField;
    location    "280";
    object      PMV;
}
// * * * * * * * * * * * * * * * * * * * * * * * * * * * * * * * * * * * * * //

dimensions      [0 0 0 0 0 0 0];

internalField   nonuniform List<scalar> 
458
(
1.3186275376914545
1.0718390220901388
1.0369114832724633
1.0083309744807925
0.9908682491403865
0.984083842503264
0.9896429958680238
1.0081270379977783
1.0436957071862338
1.0997488186489321
1.178983903126799
1.2314203785380735
1.2447947224340095
1.2524369437264136
1.2638999065039267
1.4033238874802423
1.3890035932337643
1.3847073017256568
1.393299791766074
1.399982579962026
1.40523317987784
1.3989191257386664
1.3954942112908624
1.396964058014994
1.3998955083521396
1.4029989878305014
1.4073097626591824
1.4127229319750025
1.4202201314436824
1.4320613416777577
1.4481870115974707
1.454390587178905
1.4706142322594735
1.2487667349936016
1.0847188847833766
1.071024253201364
1.042782400622021
1.0265363081235839
1.0199101904005399
1.02342557029129
1.0334908775982636
1.050177460636033
1.0793115464962804
1.126207748745673
1.1994489945280495
1.2447947224340095
1.2543474686152138
1.2291503236227965
1.1981200268805388
1.209804144181389
1.2427169392701867
1.3663548117649953
1.3722952802658486
1.3732500778107524
1.3832751840771187
1.3856168509338778
1.3867148942222536
1.388604331401897
1.3909719995423027
1.3929827279786808
1.3950788862079557
1.396896451609071
1.3990523045857552
1.4019978452310558
1.4064726118997348
1.416382866209615
1.4300522027142843
1.4386426100973848
1.4293685349529113
1.2767687791903246
1.0771253615390153
1.1050292375746134
1.0912377930049717
1.0856595201647177
1.0825214165085744
1.0835031702671454
1.0761986047511574
1.0588201240997213
1.0491817227034452
1.0719048288592157
1.1378214937984141
1.2306611390495084
1.2638999065039267
1.2660565927435825
1.2491118587220753
1.249177133320956
1.2463803541199197
1.270672953783322
1.3219843092751986
1.3290413020738459
1.341929257759202
1.3572201532703012
1.3633161672061516
1.3877931319688153
1.4066451602005399
1.4090517070951474
1.4109609417254179
1.4128701569099942
1.4147793525535792
1.417165819482982
1.4190749708097339
1.4235368938652
1.4290976873307635
1.4252566001000972
1.3580784147696545
1.3479127872113643
1.0719556047385606
1.1301399608008105
1.144599241674619
1.1641602022118946
1.1761668589364973
1.1753710383138076
1.1355868951215857
1.0690773480612206
1.0204340630208129
1.0278949459224362
1.0969247874082795
1.1929622464445822
1.2748106188485462
1.2863468651160086
1.2740632683100743
1.2354943513967376
1.210905914463075
1.1719467530505476
1.2355414182274227
1.2772555417365947
1.312277010094359
1.3515095271315543
1.3939882712447769
1.4262044204048487
1.4271722327762613
1.4273466815591564
1.4320136483192387
1.4383784098425898
1.4465526741502948
1.458183665600671
1.475470893294156
1.5020628520193022
1.49331741082074
1.467751352589798
1.4109439460819968
1.3153889194864028
1.4402172388708483
1.0810200806988735
1.1494418550421819
1.1927698000926443
1.2546357606750633
1.302729539169771
1.2934305947058409
1.1909126244031991
1.073347532071079
0.9957499218502635
0.9977468209300044
1.0705518652044748
1.1758222152386366
1.2754670420328107
1.3116571200048677
1.3111795914343438
1.2745327212059974
1.2474222240948927
1.250606477511779
1.272867960539083
1.3118247613474971
1.3609102526032937
1.4125283513049125
1.462626995085453
1.5026932639971229
1.518991695335806
1.52724592095564
1.5335862750266644
1.5372587817526515
1.5387296261003736
1.5395206375766295
1.5398737312414839
1.5388743294734768
1.5179454002999422
1.4823606276947092
1.402113659593478
1.3946977080875602
1.4080760268025636
1.4967778090109962
1.3776655297693163
1.5361745871250654
1.1122070493432747
1.1832839027356108
1.2284108771570228
1.3254000541787971
1.3899583120908516
1.3541343314388872
1.2002697231593944
1.059800461006981
0.9739338420938265
0.9768678192602188
1.059103600439778
1.1822929340678345
1.303105260854382
1.3474690359033206
1.3493788478944864
1.34508174786201
1.3370861878843692
1.3456598455701627
1.3737099559887251
1.4175167917426457
1.4685818377794821
1.5049647332564733
1.5350149499161703
1.558382877816381
1.5755485297862137
1.5874663652633594
1.5950940811179406
1.5993844621736597
1.5989077606631763
1.5950940811179406
1.5879431113319489
1.576625860602907
1.5420106055997111
1.4980389161763188
1.4210385087451438
1.408695601549357
1.4061929924936534
1.4320169597365602
1.4429029926342152
1.6296358552277423
1.2001882623936504
1.307660708703789
1.2946513957273622
1.3599133760604636
1.3994319709535987
1.3031850009795611
1.1632498938799425
1.0204884472158762
0.9407877783985676
0.9619169120927553
1.0703331208875102
1.2223880914603193
1.367998637142293
1.3975958962642232
1.4033238874802423
1.40189190566444
1.4090517070951474
1.4324384688239606
1.4653655810494637
1.5016254385591132
1.5369226857442992
1.5669659878999798
1.59128028232914
1.608441431445877
1.6198808229981658
1.6270298701519723
1.6308425123804664
1.6313190836405247
1.627983042705941
1.6203574399583687
1.6103480740942535
1.5974776448691608
1.5798381801419272
1.5327177708679711
1.4654836360433787
1.431186004421614
1.4093887833566887
1.3828485368425683
1.4861323482832136
1.7694334183537712
1.5692381342388695
1.513689337904213
1.4037376538813064
1.381518665851398
1.3501547434266028
1.239428281379919
1.0715614483491405
0.9313455791090425
0.8876366960881473
0.962085146844385
1.122786469469694
1.3203615092626182
1.4300522027142843
1.4605939338543226
1.4687056514253696
1.4725227905587777
1.4858820590152446
1.51164309768023
1.5431226452493052
1.574118146048503
1.6008145554159736
1.6217872790393635
1.6370377813537424
1.6465682913721498
1.651333236120567
1.6532391554582768
1.6522861999887504
1.6494272832535808
1.6441857410521148
1.6375143263185448
1.6275064574263856
1.61559118224179
1.6003378595519773
1.5826988040684897
1.563628178689973
1.5526604939819635
1.5261116946306228
1.4500592349282824
1.361328821346547
1.9787057096285003
1.835438206662353
1.6779809163337538
1.5414197091457482
1.4493899732686142
1.3225048222721099
1.0707520811797497
0.8522380398021878
0.768556977933772
0.8344743144964866
1.0231492161663325
1.2693923164191336
1.443892096218136
1.5068728681090007
1.5297685418993867
1.5388303953128053
1.548845435270037
1.5650586788333505
1.5884198555656208
1.6127313340913094
1.6332253485536177
1.6491606514197574
1.651302164170278
1.6500124444131912
1.6467154994104247
1.641578775213693
1.6350706289393513
1.6260874100357017
1.615616887002691
1.6031421009251001
1.5888048832814057
1.572578629311637
1.5567964652755653
1.5383895217231474
1.517549867969834
1.498844396945251
1.4871289920447832
1.4828424883786806
1.4733259101788017
1.4442666394124932
-1.7551403258678175
-0.9276381773347555
-0.4468645928038525
-0.2579835338314946
-0.03415678038598415
0.26074077275200547
0.6037786454161511
0.9570789452966902
1.2782279635279603
1.467751352589798
1.5184467070503695
1.5348790783633597
1.5451997539083175
1.556605725071825
1.5714849022958224
1.5895545410970229
1.6074357197033524
1.6217473451016626
1.6296839382580843
1.6325954953303319
1.6313471787663116
1.6274053715476895
1.6215231266143728
1.6143077821656153
1.6060302610001453
1.5972145686957029
1.5881585275697534
1.579846242087479
1.573207869896482
1.5677992036327846
1.563245999301929
1.5596681769087175
1.556259584194072
1.5562672467448173
1.5663758230011604
1.603864496871673
1.6794389217064163
1.5296378317902386
-1.7569474949934774
-0.6988264899370692
-0.07521579257245029
0.24873203067749483
0.5581562653838859
0.9131917802498541
1.222822289510469
1.3783074982800652
1.455515579690447
1.5062360675279605
1.5334757197916455
1.5504082992494144
1.5630303684559332
1.574817886483601
1.5860880905371906
1.5976093917896543
1.607562204690852
1.614303522150748
1.6180325459723484
1.618760259532009
1.618220667028719
1.615867825470119
1.612614943458153
1.608991527767838
1.6050862012448723
1.6010359554835678
1.597051608826061
1.5945979219505015
1.5930977767231487
1.594014321831732
1.5988711415205035
1.608187881958199
1.6187991591859316
1.6274983093805762
1.6380264581657398
1.6746485435997949
1.6200424904127193
1.5691385034567982
-1.0994037541962636
-1.102755095846091
-0.9788130463047638
-0.12865032861437606
0.5097082467731436
0.9673329902120962
1.2419310496479652
1.3709589675921634
1.4505092313155905
1.4985569740125688
1.5315232800359655
1.554186167715714
1.5698972042958341
1.5805173814529263
1.5888882574520065
1.5956262805197554
1.600495364692333
1.6030659041300759
1.6031391373352948
1.6001316949390791
1.5960013705397822
1.591178475551957
1.5864015012495403
1.5828109094984977
1.579434037124423
1.5768466731896562
1.5752096848985477
1.5748227811329065
1.5766639766873844
1.5804060198433547
1.587131850940421
1.5988136647205577
1.6201800305797307
1.658759339723163
1.697065739456703
1.7018283561522374
1.6706028088576244
1.6204866438090466
1.5763050311804832
1.5886935962887225
)
;

boundaryField
{
    ".*"
    {
        type            zeroGradient;
    }
}


// ************************************************************************* //
