/*--------------------------------*- C++ -*----------------------------------*\
  =========                 |
  \\      /  F ield         | OpenFOAM: The Open Source CFD Toolbox
   \\    /   O peration     | Website:  https://openfoam.org
    \\  /    A nd           | Version:  6
     \\/     M anipulation  |
\*---------------------------------------------------------------------------*/
FoamFile
{
    version     2.0;
    format      ascii;
    class       volScalarField;
    location    "3690";
    object      k;
}
// * * * * * * * * * * * * * * * * * * * * * * * * * * * * * * * * * * * * * //

dimensions      [0 2 -2 0 0 0 0];

internalField   nonuniform List<scalar> 
458
(
0.00226773
0.002686
0.00280874
0.00308392
0.00334874
0.00360953
0.00388033
0.00416512
0.00440542
0.00455983
0.00457742
0.00441282
0.00402225
0.00325505
0.00187334
0.000457613
0.000628894
0.000808373
0.000878855
0.00085156
0.000745734
0.000636817
0.00054665
0.000474093
0.000415272
0.000367096
0.000327362
0.000294041
0.000265249
0.000239309
0.000214605
0.000200564
0.00016941
0.00412317
0.00755268
0.00415031
0.00437424
0.00471604
0.00513526
0.00563211
0.00619631
0.0068002
0.00731255
0.0075879
0.00753069
0.00712355
0.00635467
0.00513887
0.00326398
0.00224656
0.0014955
0.00045027
0.000973127
0.00130321
0.0014583
0.00147264
0.00125931
0.0010243
0.000833973
0.000688713
0.000577301
0.000490654
0.000421509
0.000364693
0.000317431
0.000283503
0.000264379
0.000493912
0.000292778
0.0060951
0.0136498
0.00491139
0.00472491
0.00494145
0.0052857
0.00575041
0.00634033
0.00699315
0.00754972
0.00789164
0.00794892
0.00769258
0.0070601
0.00603665
0.00488802
0.00391827
0.00208598
0.00106833
0.00139967
0.00160351
0.00173029
0.0017227
0.00134706
0.0010325
0.000802574
0.000637556
0.000518222
0.000430577
0.00036531
0.000316453
0.000280874
0.00026212
0.000265438
0.000780393
0.000408878
0.00835964
0.0222367
0.00592689
0.00470725
0.0047467
0.0050166
0.00547373
0.00616801
0.00689189
0.00746228
0.00783288
0.00795262
0.00774739
0.00714496
0.00628632
0.00543508
0.00463178
0.00349996
0.0027686
0.00250672
0.0023739
0.00233793
0.0022893
0.00215159
0.00170922
0.00143617
0.00126378
0.00114361
0.00104667
0.000954677
0.000871157
0.000787059
0.000694162
0.000530218
0.000422746
0.00113249
0.000542368
0.0110412
0.0339576
0.00842364
0.00474991
0.00448305
0.00470824
0.00529961
0.00635505
0.00718493
0.00773939
0.00809483
0.00819683
0.00789999
0.00718219
0.00621581
0.00530901
0.0045795
0.00397828
0.00379452
0.00347936
0.00325239
0.00307051
0.00285905
0.00259012
0.00230259
0.00210654
0.00198652
0.00189183
0.00178979
0.00166103
0.00149184
0.0012991
0.00109385
0.000865686
0.000664767
0.000922207
0.00106384
0.000969458
0.00108637
0.00128348
0.0143256
0.0466888
0.0149489
0.00592279
0.00474229
0.00478316
0.0057072
0.00726641
0.00803157
0.00847396
0.00873812
0.0087471
0.00831965
0.0073782
0.00612398
0.00496569
0.0041832
0.00384123
0.00381361
0.00382267
0.00373148
0.00350835
0.0031888
0.00283446
0.00254748
0.00239506
0.00232146
0.00226287
0.00218483
0.00206506
0.00187828
0.0016488
0.00140027
0.00114674
0.000935556
0.000900665
0.00103002
0.00105444
0.00165137
0.00138073
0.0179778
0.0550454
0.0270743
0.0123575
0.00830695
0.00741116
0.00850372
0.00920878
0.00948512
0.00964486
0.00972893
0.00958276
0.00894636
0.00770853
0.00610936
0.00469817
0.00388623
0.00373527
0.00389764
0.00398214
0.00385309
0.00354991
0.0031705
0.00281147
0.00256709
0.00246826
0.00245142
0.00245674
0.00245467
0.00242426
0.00233573
0.00214699
0.0019104
0.00165882
0.00145713
0.00136452
0.0014509
0.00168145
0.00223389
0.0019488
0.0189415
0.0568503
0.0383021
0.0271706
0.019741
0.0158798
0.0137247
0.0122881
0.0115359
0.0112118
0.0110092
0.0106094
0.00964613
0.00799435
0.00597376
0.00439193
0.00367695
0.00365496
0.00377945
0.0037498
0.0035165
0.00316979
0.00281983
0.00255033
0.00240793
0.00238367
0.0024313
0.00251746
0.00263041
0.00276733
0.00292564
0.0030669
0.00310916
0.003139
0.00329216
0.0038692
0.00511977
0.00681609
0.0128318
0.00467701
0.018204
0.0264668
0.0243623
0.0217106
0.0188863
0.0164643
0.0146538
0.0135901
0.0130861
0.012767
0.0123561
0.0115953
0.0100706
0.00776844
0.00515879
0.00385712
0.00340211
0.0033091
0.00325259
0.00309089
0.00282304
0.00252744
0.00228241
0.00213418
0.00208889
0.00212324
0.00220959
0.00233308
0.00249007
0.0026817
0.00290935
0.00317117
0.00348968
0.00390105
0.00444808
0.00509779
0.0056969
0.00606903
0.00624807
0.00408114
0.00718448
0.0110953
0.0135431
0.0147731
0.0154366
0.015707
0.0153762
0.0144498
0.0132102
0.0115849
0.00880996
0.00585902
0.00403631
0.00322546
0.00288131
0.00270022
0.00252793
0.00231818
0.00209088
0.00188811
0.00175207
0.00169317
0.00169793
0.00174775
0.00182983
0.0019393
0.00207753
0.00225115
0.00247287
0.00276577
0.00313121
0.00356696
0.00405088
0.00449032
0.00471246
0.00457264
0.00410657
0.00264226
0.00805113
0.0194682
0.0216073
0.0214972
0.0207247
0.0184741
0.0153358
0.0120142
0.00883193
0.00623521
0.004351
0.00326389
0.0027163
0.00241274
0.00221107
0.00203305
0.00184828
0.00166528
0.00150956
0.00139915
0.00133841
0.00132646
0.00135521
0.00141897
0.00151613
0.00164811
0.00181816
0.0020306
0.0022959
0.00262427
0.00302428
0.00349668
0.0040152
0.00451206
0.00481672
0.00510133
0.00428715
0.00271121
0.00890494
0.00935042
0.0097646
0.0120868
0.0107996
0.00848229
0.00603707
0.00437006
0.00348191
0.00273144
0.00214583
0.00173659
0.00142382
0.00120737
0.00106737
0.000970554
0.000896031
0.000834285
0.000784965
0.000752537
0.000740621
0.000749583
0.000776435
0.000816765
0.000869185
0.000933415
0.00101008
0.001101
0.00120914
0.00133993
0.00149684
0.00168182
0.00189921
0.00215397
0.00245067
0.0028315
0.00300685
0.00288498
0.00249595
0.00213495
)
;

boundaryField
{
    floor
    {
        type            kqRWallFunction;
        value           nonuniform List<scalar> 
36
(
0.00187334
0.000457613
0.000628894
0.000808373
0.000878855
0.00085156
0.000745734
0.000636817
0.00054665
0.000474093
0.000415272
0.000367096
0.000327362
0.000294041
0.000265249
0.000239309
0.000214605
0.000200564
0.00016941
0.00016941
0.000292778
0.000408878
0.000542368
0.000969458
0.00108637
0.00128348
0.00187334
0.00326398
0.00224656
0.0014955
0.000457613
0.0014955
0.00045027
0.00208598
0.00106833
0.0027686
)
;
    }
    ceiling
    {
        type            kqRWallFunction;
        value           nonuniform List<scalar> 
43
(
0.00890494
0.00935042
0.0097646
0.0120868
0.0107996
0.00848229
0.00603707
0.00437006
0.00348191
0.00273144
0.00214583
0.00173659
0.00142382
0.00120737
0.00106737
0.000970554
0.000896031
0.000834285
0.000784965
0.000752537
0.000740621
0.000749583
0.000776435
0.000816765
0.000869185
0.000933415
0.00101008
0.001101
0.00120914
0.00133993
0.00149684
0.00168182
0.00189921
0.00215397
0.00245067
0.0028315
0.00300685
0.00288498
0.00249595
0.00213495
0.018204
0.0264668
0.00805113
)
;
    }
    sWall
    {
        type            kqRWallFunction;
        value           uniform 0.00890494;
    }
    nWall
    {
        type            kqRWallFunction;
        value           nonuniform List<scalar> 6(0.00128348 0.00138073 0.0019488 0.00264226 0.00271121 0.00213495);
    }
    sideWalls
    {
        type            empty;
    }
    glass1
    {
        type            kqRWallFunction;
        value           nonuniform List<scalar> 9(0.00226773 0.00412317 0.0060951 0.00835964 0.0110412 0.0143256 0.0179778 0.0189415 0.018204);
    }
    glass2
    {
        type            kqRWallFunction;
        value           nonuniform List<scalar> 2(0.00467701 0.00408114);
    }
    sun
    {
        type            kqRWallFunction;
        value           nonuniform List<scalar> 
14
(
0.00226773
0.002686
0.00280874
0.00308392
0.00334874
0.00360953
0.00388033
0.00416512
0.00440542
0.00455983
0.00457742
0.00441282
0.00402225
0.00325505
)
;
    }
    Table_master
    {
        type            kqRWallFunction;
        value           nonuniform List<scalar> 9(0.00134706 0.0010325 0.000802574 0.000637556 0.000518222 0.000430577 0.00036531 0.000316453 0.000280874);
    }
    Table_slave
    {
        type            kqRWallFunction;
        value           nonuniform List<scalar> 9(0.00170922 0.00143617 0.00126378 0.00114361 0.00104667 0.000954677 0.000871157 0.000787059 0.000694162);
    }
    inlet
    {
        type            turbulentIntensityKineticEnergyInlet;
        intensity       0.05;
        value           uniform 0.000937501;
    }
    outlet
    {
        type            zeroGradient;
    }
}


// ************************************************************************* //
