/*--------------------------------*- C++ -*----------------------------------*\
  =========                 |
  \\      /  F ield         | OpenFOAM: The Open Source CFD Toolbox
   \\    /   O peration     | Website:  https://openfoam.org
    \\  /    A nd           | Version:  6
     \\/     M anipulation  |
\*---------------------------------------------------------------------------*/
FoamFile
{
    version     2.0;
    format      ascii;
    class       volScalarField;
    location    "4500";
    object      k;
}
// * * * * * * * * * * * * * * * * * * * * * * * * * * * * * * * * * * * * * //

dimensions      [0 2 -2 0 0 0 0];

internalField   nonuniform List<scalar> 
458
(
0.00226773
0.002686
0.00280874
0.00308392
0.00334874
0.00360957
0.00388041
0.0041652
0.0044055
0.00455991
0.0045775
0.0044129
0.00402236
0.00325521
0.00187334
0.000457621
0.00062891
0.000808397
0.000878879
0.000851584
0.00074575
0.000636833
0.000546662
0.000474101
0.00041528
0.000367104
0.000327362
0.000294041
0.000265249
0.000239309
0.000214605
0.000200564
0.00016941
0.00412325
0.00755284
0.00415031
0.00437424
0.00471604
0.00513521
0.00563203
0.00619623
0.00680012
0.00731247
0.00758782
0.00753061
0.00712353
0.00635467
0.00513899
0.00326398
0.00224656
0.0014955
0.00045027
0.000973143
0.00130321
0.0014583
0.00147264
0.00125931
0.0010243
0.000833969
0.000688705
0.000577293
0.00049065
0.000421509
0.000364693
0.000317431
0.000283503
0.000264379
0.00049392
0.000292786
0.0060951
0.0136498
0.00491135
0.00472483
0.00494137
0.0052856
0.00575025
0.00634017
0.00699291
0.00754948
0.0078914
0.00794868
0.00769234
0.00705994
0.00603649
0.00488794
0.00391819
0.0020859
0.00106833
0.00139967
0.00160351
0.00173029
0.0017227
0.00134706
0.0010325
0.000802566
0.000637548
0.000518214
0.000430569
0.000365302
0.000316445
0.000280866
0.000262112
0.000265438
0.000780409
0.000408878
0.0083599
0.0222367
0.00592681
0.00470725
0.0047467
0.0050166
0.00547373
0.00616801
0.00689165
0.00746204
0.00783259
0.0079523
0.00774707
0.00714472
0.00628608
0.00543492
0.00463162
0.00349988
0.00276852
0.00250664
0.00237382
0.00233785
0.00228922
0.00215151
0.00170914
0.00143609
0.0012637
0.00114353
0.00104659
0.000954637
0.000871125
0.000787035
0.000694146
0.000530226
0.000422746
0.00113249
0.00054236
0.0110412
0.0339576
0.00842364
0.00474991
0.00448305
0.00470824
0.00529961
0.00635505
0.00718493
0.00773939
0.00809475
0.00819675
0.00789991
0.00718211
0.00621573
0.00530901
0.0045795
0.00397828
0.00379452
0.00347936
0.00325239
0.00307051
0.00285905
0.00259012
0.00230259
0.00210654
0.00198652
0.00189183
0.00178979
0.00166103
0.00149184
0.0012991
0.00109385
0.000865694
0.000664775
0.000922215
0.00106384
0.000969466
0.00108637
0.00128348
0.0143256
0.0466888
0.0149489
0.00592271
0.00474221
0.00478308
0.00570712
0.00726625
0.00803145
0.00847382
0.00873796
0.00874694
0.00831949
0.00737804
0.00612382
0.00496561
0.00418312
0.00384115
0.00381353
0.00382259
0.0037314
0.00350827
0.00318872
0.00283438
0.0025474
0.00239498
0.00232138
0.00226279
0.00218478
0.00206506
0.00187828
0.0016488
0.00140027
0.00114674
0.00093555
0.000900657
0.00103002
0.00105444
0.00165137
0.00138073
0.0179784
0.0550446
0.0270743
0.0123568
0.00830663
0.00741084
0.00850333
0.00920846
0.00948488
0.00964462
0.00972869
0.00958252
0.00894612
0.00770829
0.0061092
0.00469801
0.00388607
0.00373511
0.00389756
0.00398206
0.00385301
0.00354983
0.00317042
0.00281139
0.00256701
0.00246818
0.00245134
0.00245666
0.00245459
0.00242418
0.00233565
0.00214691
0.00191032
0.00165879
0.00145713
0.00136452
0.0014509
0.00168145
0.00223389
0.0019488
0.018942
0.0568511
0.0383026
0.0271706
0.019741
0.0158798
0.0137247
0.0122881
0.0115359
0.0112118
0.0110092
0.0106094
0.00964613
0.00799427
0.00597368
0.00439185
0.00367695
0.00365496
0.00377945
0.0037498
0.0035165
0.00316979
0.00281983
0.00255033
0.00240793
0.00238367
0.0024313
0.00251747
0.00263049
0.00276741
0.00292572
0.0030669
0.00310916
0.003139
0.00329218
0.00386928
0.00511985
0.00681617
0.0128318
0.00467701
0.018204
0.026467
0.0243623
0.0217106
0.0188863
0.0164643
0.0146538
0.0135901
0.0130861
0.012767
0.0123561
0.0115953
0.0100706
0.00776828
0.00515863
0.00385704
0.00340204
0.00330908
0.00325256
0.00309081
0.00282303
0.00252744
0.00228241
0.00213418
0.00208889
0.00212324
0.00220959
0.00233308
0.00249007
0.0026817
0.00290935
0.00317117
0.00348968
0.0039011
0.00444815
0.00509779
0.0056969
0.00606901
0.00624799
0.00408112
0.00718419
0.0110953
0.0135431
0.0147731
0.0154366
0.015707
0.0153762
0.0144498
0.0132102
0.0115849
0.00880988
0.00585902
0.00403631
0.00322546
0.00288131
0.00270022
0.00252793
0.00231818
0.00209088
0.00188811
0.00175207
0.00169317
0.00169793
0.00174775
0.00182983
0.0019393
0.00207753
0.00225115
0.00247287
0.00276577
0.00313121
0.00356696
0.00405086
0.00449028
0.00471238
0.00457256
0.00410649
0.00264219
0.00805113
0.0194682
0.0216065
0.0214964
0.0207239
0.0184733
0.0153357
0.0120142
0.00883169
0.00623505
0.00435092
0.00326381
0.00271622
0.00241274
0.00221107
0.00203305
0.00184828
0.00166528
0.00150956
0.00139915
0.00133841
0.00132646
0.00135521
0.00141897
0.00151613
0.00164811
0.00181816
0.0020306
0.00229584
0.00262419
0.0030242
0.0034966
0.00401512
0.00451198
0.00481664
0.00510125
0.00428707
0.00271113
0.00890486
0.00935034
0.0097646
0.0120868
0.0107996
0.00848256
0.00603733
0.00437006
0.00348191
0.00273144
0.00214583
0.00173667
0.0014239
0.00120744
0.00106739
0.000970594
0.000896071
0.000834325
0.000785005
0.000752577
0.000740661
0.000749615
0.000776467
0.000816797
0.000869217
0.000933447
0.0010101
0.00110104
0.0012092
0.00134001
0.00149692
0.0016819
0.00189929
0.00215405
0.00245075
0.00283158
0.00300693
0.00288506
0.002496
0.00213495
)
;

boundaryField
{
    floor
    {
        type            kqRWallFunction;
        value           nonuniform List<scalar> 
36
(
0.00187334
0.000457621
0.00062891
0.000808397
0.000878879
0.000851584
0.00074575
0.000636833
0.000546662
0.000474101
0.00041528
0.000367104
0.000327362
0.000294041
0.000265249
0.000239309
0.000214605
0.000200564
0.00016941
0.00016941
0.000292786
0.000408878
0.00054236
0.000969466
0.00108637
0.00128348
0.00187334
0.00326398
0.00224656
0.0014955
0.000457621
0.0014955
0.00045027
0.0020859
0.00106833
0.00276852
)
;
    }
    ceiling
    {
        type            kqRWallFunction;
        value           nonuniform List<scalar> 
43
(
0.00890486
0.00935034
0.0097646
0.0120868
0.0107996
0.00848256
0.00603733
0.00437006
0.00348191
0.00273144
0.00214583
0.00173667
0.0014239
0.00120744
0.00106739
0.000970594
0.000896071
0.000834325
0.000785005
0.000752577
0.000740661
0.000749615
0.000776467
0.000816797
0.000869217
0.000933447
0.0010101
0.00110104
0.0012092
0.00134001
0.00149692
0.0016819
0.00189929
0.00215405
0.00245075
0.00283158
0.00300693
0.00288506
0.002496
0.00213495
0.018204
0.026467
0.00805113
)
;
    }
    sWall
    {
        type            kqRWallFunction;
        value           uniform 0.00890486;
    }
    nWall
    {
        type            kqRWallFunction;
        value           nonuniform List<scalar> 6(0.00128348 0.00138073 0.0019488 0.00264219 0.00271113 0.00213495);
    }
    sideWalls
    {
        type            empty;
    }
    glass1
    {
        type            kqRWallFunction;
        value           nonuniform List<scalar> 9(0.00226773 0.00412325 0.0060951 0.0083599 0.0110412 0.0143256 0.0179784 0.018942 0.018204);
    }
    glass2
    {
        type            kqRWallFunction;
        value           nonuniform List<scalar> 2(0.00467701 0.00408112);
    }
    sun
    {
        type            kqRWallFunction;
        value           nonuniform List<scalar> 
14
(
0.00226773
0.002686
0.00280874
0.00308392
0.00334874
0.00360957
0.00388041
0.0041652
0.0044055
0.00455991
0.0045775
0.0044129
0.00402236
0.00325521
)
;
    }
    Table_master
    {
        type            kqRWallFunction;
        value           nonuniform List<scalar> 9(0.00134706 0.0010325 0.000802566 0.000637548 0.000518214 0.000430569 0.000365302 0.000316445 0.000280866);
    }
    Table_slave
    {
        type            kqRWallFunction;
        value           nonuniform List<scalar> 9(0.00170914 0.00143609 0.0012637 0.00114353 0.00104659 0.000954637 0.000871125 0.000787035 0.000694146);
    }
    inlet
    {
        type            turbulentIntensityKineticEnergyInlet;
        intensity       0.05;
        value           uniform 0.000937501;
    }
    outlet
    {
        type            zeroGradient;
    }
}


// ************************************************************************* //
