/*--------------------------------*- C++ -*----------------------------------*\
  =========                 |
  \\      /  F ield         | OpenFOAM: The Open Source CFD Toolbox
   \\    /   O peration     | Website:  https://openfoam.org
    \\  /    A nd           | Version:  6
     \\/     M anipulation  |
\*---------------------------------------------------------------------------*/
FoamFile
{
    version     2.0;
    format      ascii;
    class       surfaceScalarField;
    location    "4410";
    object      phi;
}
// * * * * * * * * * * * * * * * * * * * * * * * * * * * * * * * * * * * * * //

dimensions      [1 0 -1 0 0 0 0];

internalField   nonuniform List<scalar> 
850
(
-0.00305312
0.00311358
-0.00414582
0.00109271
-0.00501491
0.00086909
-0.00570377
0.000688852
-0.00617584
0.000472074
-0.00639708
0.000221237
-0.00632785
-6.92232e-05
-0.00592402
-0.000403835
-0.00517376
-0.000750262
-0.00412858
-0.00104518
-0.00290027
-0.00122831
-0.00164146
-0.00125881
-0.00053896
-0.0011025
0.000135942
-0.000674902
0.000138293
-0.000922422
0.000926079
-0.00069003
-0.000232392
-6.07995e-05
-0.00062923
0.000542645
-0.000603445
0.00100183
-0.000459182
0.0012584
-0.000256575
0.00136652
-0.000108115
0.00141933
-5.28164e-05
0.00144969
-3.03511e-05
0.00146475
-1.50649e-05
0.00146836
-3.61284e-06
0.00146137
6.99774e-06
0.00143811
2.32525e-05
0.00137959
5.85222e-05
0.00125367
0.000125921
0.00105009
0.000203581
0.000793445
0.000256644
0.000798284
-0.00220745
0.00548443
-0.00329511
0.00218036
-0.00420833
0.00178231
-0.0049061
0.00138662
-0.0053876
0.000953581
-0.00563054
0.00046417
-0.0055945
-0.000105261
-0.00524029
-0.000758046
-0.00456676
-0.00142378
-0.0036427
-0.00196924
-0.00258801
-0.00228301
-0.00154147
-0.00230534
-0.000628639
-0.00201534
9.29596e-05
-0.0013965
0.000872783
-0.00064153
0.00114862
-0.000272051
0.000956842
0.000196136
0.00096953
4.15197e-05
0.000895559
0.000421777
-0.000612649
0.00078666
-0.000994113
0.00109963
-0.000916414
0.00135048
-0.000710035
0.00140695
-0.000313041
0.00141508
-0.000116252
0.00142581
-6.35428e-05
0.0014348
-3.93368e-05
0.00144006
-2.0333e-05
0.00144223
-5.77362e-06
0.00144183
7.38964e-06
0.00143635
2.87328e-05
0.0013999
9.49783e-05
0.00124702
0.0002788
0.000978555
0.000472044
0.000644613
0.000590586
0.00145528
-0.00156234
0.00729719
-0.00251038
0.0031284
-0.00334301
0.00261494
-0.00396557
0.00200918
-0.00441314
0.00140115
-0.00466165
0.000712685
-0.00465598
-0.000110934
-0.00433468
-0.00107935
-0.00371313
-0.00204533
-0.0028887
-0.00279367
-0.00198658
-0.00318513
-0.00112264
-0.00316928
-0.00037344
-0.00276454
0.000240561
-0.0020105
0.000752063
-0.00115303
0.000899411
-0.000419398
0.000707515
0.000388031
0.00168831
0.00143723
-0.000527838
0.00163273
-0.000808149
0.00157514
-0.000936518
0.00160843
-0.000949704
0.0018117
-0.000913303
0.00149881
0.00138271
0.00131932
0.00128014
0.00125996
0.00125434
0.00126188
0.00129077
0.0013859
0.00115888
0.000505827
0.000869992
0.000760926
0.000498893
0.000961685
0.00197274
-0.00109547
0.00871731
-0.00185227
0.0038852
-0.0024366
0.00319927
-0.00288268
0.00245526
-0.00322781
0.00174628
-0.00344067
0.000925546
-0.00344207
-0.000109534
-0.00312365
-0.00139777
-0.00254777
-0.00262121
-0.00184605
-0.00349539
-0.0011304
-0.00390079
-0.000480675
-0.003819
6.57977e-05
-0.00331101
0.000526394
-0.0024711
0.000902496
-0.00152913
0.00111957
-0.000636471
0.00130375
0.000203849
0.00225751
0.000734547
0.0021677
0.000101754
0.00199492
-0.000355061
0.00190895
-0.000722182
0.00179816
-0.00082572
0.00166596
-0.000817506
0.001435
-0.000682344
0.00175861
-0.000323767
0.00193628
-0.000177823
0.00206721
-0.000131081
0.002168
-0.000100942
0.00222823
-6.03811e-05
0.00222567
2.40299e-06
0.00213278
9.27361e-05
0.00191323
0.0002194
0.00150707
0.000406004
0.00126968
0.000743218
0.000902421
0.00112818
0.000384076
0.00148003
0.00238046
-0.000756067
0.0098611
-0.00132705
0.00445618
-0.00150962
0.00338184
-0.00168822
0.00263386
-0.0018532
0.00191126
-0.00196223
0.00103457
-0.00191376
-0.000157998
-0.00155673
-0.0017548
-0.00105571
-0.00312223
-0.000537798
-0.0040133
-7.33053e-05
-0.00436528
0.000305346
-0.00419765
0.000596515
-0.00360218
0.000849398
-0.00272398
0.00106874
-0.00174848
0.00127615
-0.000843878
0.00158682
-0.000106824
0.00203038
0.000290994
0.00206425
6.78832e-05
0.00199693
-0.000287748
0.00181244
-0.000537685
0.00162456
-0.000637846
0.00144747
-0.000640418
0.00131879
-0.000553665
0.00137755
-0.000382527
0.00146562
-0.000265886
0.00155009
-0.000215555
0.00163158
-0.000182431
0.00170172
-0.000130518
0.00174075
-3.6629e-05
0.00172468
0.000108801
0.00163842
0.000305663
0.00148618
0.00055824
0.0013301
0.000899304
0.00115112
0.00130716
0.000804083
0.00182707
0.00101981
0.00216473
-0.00109518
0.0021361
-0.00179343
0.000717873
-0.00172066
-0.000638709
0.0109406
-0.00101437
0.00483184
-0.000633426
0.0030009
-0.000448687
0.00244912
-0.000384068
0.00184664
-0.000303712
0.000954217
-5.19232e-05
-0.000409787
0.000334482
-0.00214121
0.000692164
-0.00347991
0.00095201
-0.00427315
0.00109503
-0.0045083
0.00114536
-0.00424798
0.00113926
-0.00359608
0.00111607
-0.00270079
0.00110061
-0.00173302
0.00113278
-0.000876049
0.00126984
-0.000243891
0.00148462
7.6221e-05
0.00153588
1.66206e-05
0.00143791
-0.000189773
0.00126353
-0.000363308
0.00108386
-0.000458182
0.000926563
-0.000483117
0.00082154
-0.000448641
0.000810743
-0.00037173
0.00086009
-0.000315233
0.00093626
-0.000291725
0.00102701
-0.000273179
0.00112584
-0.00022935
0.00122284
-0.000133634
0.00129576
3.58892e-05
0.00133282
0.000268603
0.00134812
0.000542941
0.00138213
0.000865285
0.00148259
0.00120671
0.00168607
0.00162358
0.00203681
0.00181399
0.00233694
0.00183597
0.00182999
0.00122483
0.000174762
-0.000763858
0.0121917
-0.000621478
0.00468946
0.000492284
0.00188714
0.000960639
0.00198077
0.001218
0.00158928
0.0015995
0.000572713
0.00210279
-0.00091307
0.00243995
-0.00247837
0.00257375
-0.00361371
0.00250619
-0.00420559
0.00227297
-0.00427507
0.00193601
-0.00391102
0.00155908
-0.00321915
0.00120034
-0.00234205
0.000896616
-0.00142929
0.000705086
-0.000684518
0.000653498
-0.000192303
0.000704663
2.50562e-05
0.000712745
8.53896e-06
0.000636482
-0.000113511
0.000509157
-0.000235982
0.000368859
-0.000317884
0.000242958
-0.000357216
0.000156846
-0.00036253
0.000133885
-0.000348769
0.000162894
-0.000344241
0.000222524
-0.000351356
0.000302982
-0.000353636
0.000405269
-0.000331637
0.00053436
-0.000262724
0.000687266
-0.000117017
0.000845208
0.000110661
0.00100721
0.000380938
0.00120906
0.000663436
0.00148365
0.000932116
0.00188404
0.0012232
0.00241744
0.00128059
0.00318504
0.00106837
0.00336162
0.00104825
0.00360519
0.00273593
0.00999912
0.00339171
0.00403368
0.00344937
0.00182948
0.00353506
0.00189508
0.00374633
0.00137801
0.00422225
9.67996e-05
0.00469338
-0.00138421
0.0047884
-0.00257339
0.00451406
-0.00333938
0.0039609
-0.00365243
0.00322974
-0.0035439
0.00242474
-0.00310603
0.00162792
-0.00242232
0.000922013
-0.00163615
0.000347355
-0.000854636
-2.52158e-06
-0.000334642
-0.000140831
-5.39934e-05
-0.000155256
3.9481e-05
-0.000163107
1.639e-05
-0.000215236
-6.13819e-05
-0.000306056
-0.000145162
-0.000412285
-0.000211655
-0.000511606
-0.000257895
-0.000585877
-0.000288259
-0.000623875
-0.000310771
-0.000633087
-0.000335029
-0.000625261
-0.000359182
-0.000604697
-0.0003742
-0.000566415
-0.000369919
-0.000494196
-0.000334943
-0.000356732
-0.00025448
-0.0001466
-9.94719e-05
0.00010417
0.000130169
0.000388867
0.000378739
0.000707311
0.000613672
0.00108959
0.000840925
0.00150689
0.000863285
0.00189864
0.000676619
0.00120604
0.00174085
0.00509765
0.010598
0.0146275
0.0125614
0.0038956
0.0112292
0.00322725
0.0103408
0.00226649
0.00953394
0.000903635
0.0085315
-0.000381768
0.00735256
-0.00139445
0.00607927
-0.00206609
0.00476043
-0.0023336
0.00342923
-0.0022127
0.00216419
-0.00184099
0.00100937
-0.0012675
5.63445e-05
-0.00068312
-0.000566067
-0.000232225
-0.000859651
-4.1057e-05
-0.000956785
4.31404e-05
-0.000976441
5.91366e-05
-0.000991827
3.17766e-05
-0.00103526
-1.795e-05
-0.00110784
-7.25817e-05
-0.00119688
-0.000122619
-0.00128869
-0.000166084
-0.00137431
-0.000202631
-0.00145151
-0.000233576
-0.00152705
-0.000259491
-0.00161021
-0.000276023
-0.00170952
-0.000274884
-0.00183466
-0.000244783
-0.00199852
-0.000171086
-0.00221652
-3.64801e-05
-0.00248302
0.000167032
-0.00280699
0.000454141
-0.00327096
0.000842708
-0.00398817
0.00133088
-0.00502971
0.00188247
-0.00651693
0.0023505
-0.00825537
0.00241506
-0.00777181
0.00125729
-0.00235716
0.00895045
0.00560353
0.00747188
0.00470582
0.00708001
0.00265836
0.00672918
0.00125447
0.00611919
0.000228223
0.00524676
-0.000522027
0.00417816
-0.000997486
0.00298276
-0.0011382
0.00169117
-0.000921113
0.000430317
-0.00058013
-0.000609553
-0.000227633
-0.00127076
-2.19123e-05
-0.00156324
6.02516e-05
-0.00167791
7.36154e-05
-0.00170788
7.31076e-05
-0.00171364
6.49032e-05
-0.00172866
4.67949e-05
-0.00176747
2.08583e-05
-0.00183139
-8.65894e-06
-0.00191294
-4.1067e-05
-0.00200445
-7.45758e-05
-0.00210376
-0.000103323
-0.00221221
-0.000125126
-0.00233323
-0.000138471
-0.00246896
-0.000140294
-0.00261827
-0.000125576
-0.00277573
-8.73181e-05
-0.00292901
-1.78127e-05
-0.00306256
9.70731e-05
-0.00317484
0.000279309
-0.00327578
0.000555085
-0.00337729
0.000944216
-0.00348611
0.0014397
-0.00356962
0.00196597
-0.00356799
0.00234888
-0.00331003
0.0021571
-0.00195004
-0.000102696
-0.00422387
-0.0008261
0.00648295
0.000742096
0.00313762
0.0014078
0.00199265
0.00164671
0.00101556
0.00158288
0.000292052
0.00121186
-0.00015101
0.000529636
-0.000315261
-0.00036379
-0.000244772
-0.00124111
-4.3797e-05
-0.0018864
6.51666e-05
-0.00222714
0.000113104
-0.0023581
0.00010905
-0.0023812
8.33483e-05
-0.00237097
6.33862e-05
-0.0023499
5.20368e-05
-0.00232933
4.4334e-05
-0.00231833
3.58009e-05
-0.00232221
2.47358e-05
-0.00234159
1.07156e-05
-0.00237543
-7.2219e-06
-0.00242402
-2.59845e-05
-0.00248537
-4.19723e-05
-0.00255739
-5.31131e-05
-0.00263754
-5.83143e-05
-0.00272178
-5.60552e-05
-0.00280352
-4.3836e-05
-0.00287329
-1.75458e-05
-0.00291854
2.74349e-05
-0.00291852
9.70557e-05
-0.00284796
0.000208748
-0.00267231
0.000379436
-0.00236025
0.000632155
-0.00190394
0.000983389
-0.00128937
0.0013514
-0.000299684
0.00135919
0.00114765
0.000709767
0.00164262
-0.000597661
-0.00248957
-0.0120486
-0.0155771
-0.00905365
-0.00588862
-0.00387369
-0.00283953
-0.00253244
-0.00267145
-0.00297678
-0.00321305
-0.00324918
-0.00317673
-0.00305649
-0.00294033
-0.00284985
-0.00277932
-0.00272011
-0.00266855
-0.00262549
-0.00259344
-0.00257541
-0.00257536
-0.00259415
-0.00262904
-0.0026752
-0.00272671
-0.00277611
-0.00281347
-0.00282474
-0.00279122
-0.00268831
-0.00247394
-0.00208912
-0.00145186
-0.000463662
0.000892164
0.00225549
0.00296931
0.00237583
)
;

boundaryField
{
    floor
    {
        type            calculated;
        value           nonuniform List<scalar> 
36
(
0
0
0
0
0
0
0
0
0
0
0
0
0
0
0
0
0
0
0
-4.83914e-06
-1.23781e-05
-1.85697e-05
-2.36404e-05
-2.11162e-05
-1.96191e-05
-1.84535e-05
-2.35097e-06
-3.78399e-06
-4.35946e-06
-5.04476e-06
-3.65657e-06
-7.64391e-06
-1.10004e-05
-1.12624e-05
-1.38364e-05
-1.19395e-05
)
;
    }
    ceiling
    {
        type            calculated;
        value           nonuniform List<scalar> 
43
(
-4.1844e-05
-4.11787e-05
-4.04782e-05
-2.74141e-05
-2.22701e-05
-1.86048e-05
-1.50289e-05
-1.20046e-05
-9.92942e-06
-8.50214e-06
-7.66632e-06
-7.28567e-06
-7.13794e-06
-7.11116e-06
-7.12496e-06
-7.14628e-06
-7.17747e-06
-7.22029e-06
-7.2666e-06
-7.30719e-06
-7.31479e-06
-7.2761e-06
-7.19261e-06
-7.08108e-06
-6.95225e-06
-6.80912e-06
-6.64849e-06
-6.4752e-06
-6.28369e-06
-6.07857e-06
-5.85894e-06
-5.62507e-06
-5.37645e-06
-5.1058e-06
-4.81119e-06
-4.4248e-06
-4.13948e-06
-4.04924e-06
-4.18129e-06
-3.60358e-06
6.94074e-06
4.17887e-06
-5.3314e-05
)
;
    }
    sWall
    {
        type            calculated;
        value           uniform -0.0002414;
    }
    nWall
    {
        type            calculated;
        value           nonuniform List<scalar> 6(-5.43171e-05 -6.54339e-05 -6.88139e-05 -8.33267e-05 -9.16858e-05 -0.00011014);
    }
    sideWalls
    {
        type            empty;
        value           nonuniform 0();
    }
    glass1
    {
        type            calculated;
        value           nonuniform List<scalar> 9(-6.04583e-05 -0.000163401 -0.000250424 -0.000324644 -0.000387723 -0.000440785 -0.00048727 -0.000543331 -0.000605862);
    }
    glass2
    {
        type            calculated;
        value           nonuniform List<scalar> 2(-0.000286411 -0.000317012);
    }
    sun
    {
        type            calculated;
        value           uniform 0;
    }
    Table_master
    {
        type            calculated;
        value           nonuniform List<scalar> 9(-1.5364e-07 -1.53789e-07 -1.53839e-07 -1.53869e-07 -1.53889e-07 -1.53902e-07 -1.53906e-07 -1.539e-07 -1.5387e-07);
    }
    Table_slave
    {
        type            calculated;
        value           nonuniform List<scalar> 9(1.5353e-07 1.53515e-07 1.53468e-07 1.53431e-07 1.53408e-07 1.53408e-07 1.53413e-07 1.53451e-07 1.53535e-07);
    }
    inlet
    {
        type            calculated;
        value           uniform -0.0106584;
    }
    outlet
    {
        type            calculated;
        value           nonuniform List<scalar> 2(0.0123318 0.00356969);
    }
}


// ************************************************************************* //
