/*--------------------------------*- C++ -*----------------------------------*\
  =========                 |
  \\      /  F ield         | OpenFOAM: The Open Source CFD Toolbox
   \\    /   O peration     | Website:  https://openfoam.org
    \\  /    A nd           | Version:  6
     \\/     M anipulation  |
\*---------------------------------------------------------------------------*/
FoamFile
{
    version     2.0;
    format      ascii;
    class       volVectorField;
    location    "4410";
    object      U;
}
// * * * * * * * * * * * * * * * * * * * * * * * * * * * * * * * * * * * * * //

dimensions      [0 1 -1 0 0 0 0];

internalField   nonuniform List<vector> 
458
(
(0.0348258 0.0885225 0)
(-0.172081 0.0265844 0)
(-0.199348 0.0191131 0)
(-0.233223 0.0130811 0)
(-0.258395 0.00641368 0)
(-0.273599 -0.000805 0)
(-0.276728 -0.00877836 0)
(-0.265481 -0.0177783 0)
(-0.239422 -0.0274273 0)
(-0.199711 -0.0361121 0)
(-0.150445 -0.0420518 0)
(-0.097828 -0.0436517 0)
(-0.048728 -0.0390817 0)
(-0.00626968 -0.0236843 0)
(-0.0102615 0.00977175 0)
(-0.0102378 0.0105129 0)
(-0.0372598 -0.0174871 0)
(-0.0145104 -0.0291035 0)
(0.0136702 -0.0251835 0)
(0.0334411 -0.0178893 0)
(0.0480576 -0.00955487 0)
(0.0568169 -0.00517627 0)
(0.0606955 -0.00363238 0)
(0.0621309 -0.00308263 0)
(0.0627802 -0.0027598 0)
(0.06309 -0.00250946 0)
(0.0630293 -0.00224155 0)
(0.0624317 -0.00179742 0)
(0.0608402 -0.000838702 0)
(0.0572383 0.00107464 0)
(0.0505189 0.00317067 0)
(0.0451144 0.00508638 0)
(-0.0141469 0.021948 0)
(0.214271 0.181889 0)
(-0.162147 0.0709928 0)
(-0.162941 0.0577623 0)
(-0.198656 0.0457432 0)
(-0.224132 0.0319882 0)
(-0.240108 0.0161754 0)
(-0.244611 -0.00241019 0)
(-0.235115 -0.0239669 0)
(-0.211866 -0.0461701 0)
(-0.176484 -0.0649271 0)
(-0.133354 -0.0764272 0)
(-0.0881254 -0.0781991 0)
(-0.046259 -0.0687299 0)
(-0.0100259 -0.0460163 0)
(0.0194099 -0.0133796 0)
(0.0442423 0.00784967 0)
(0.0548471 0.0347581 0)
(-0.0118096 0.070683 0)
(0.0670402 0.0439813 0)
(0.0102887 -0.0218339 0)
(0.0265185 -0.0378985 0)
(0.0407468 -0.035645 0)
(0.0531359 -0.0273415 0)
(0.0595581 -0.0120936 0)
(0.0611783 -0.00275352 0)
(0.0612281 0.000745502 0)
(0.0613928 0.00202321 0)
(0.061718 0.00272186 0)
(0.061943 0.00322153 0)
(0.0620003 0.00367476 0)
(0.0618963 0.00440708 0)
(0.0611852 0.00620503 0)
(0.0577886 0.0112235 0)
(0.0490979 0.0155325 0)
(0.0476927 0.0187039 0)
(-0.0584275 0.0475497 0)
(0.379536 0.272955 0)
(-0.180118 0.113733 0)
(-0.123512 0.0941088 0)
(-0.159197 0.0724342 0)
(-0.182599 0.0495026 0)
(-0.198409 0.0236423 0)
(-0.204062 -0.0065353 0)
(-0.195373 -0.0409801 0)
(-0.17359 -0.0757813 0)
(-0.141424 -0.103649 0)
(-0.10384 -0.118953 0)
(-0.0658944 -0.119156 0)
(-0.0318225 -0.104119 0)
(-0.00227674 -0.0743969 0)
(0.0220307 -0.0400723 0)
(0.037597 -0.0152191 0)
(0.0431785 0.0131633 0)
(-0.0236623 0.0623191 0)
(0.12249 -0.00753296 0)
(0.0725095 -0.0320912 0)
(0.0643117 -0.041929 0)
(0.0672604 -0.0417568 0)
(0.0718706 -0.038044 0)
(0.0734893 -0.028228 0)
(0.064366 -0.0183289 0)
(0.0574116 -0.0130269 0)
(0.0548131 -0.0100784 0)
(0.0541219 -0.00818586 0)
(0.0538879 -0.00689734 0)
(0.0539582 -0.00590238 0)
(0.0547576 -0.00475323 0)
(0.0572085 -0.00139858 0)
(0.0561031 0.0149939 0)
(0.0445872 0.0258691 0)
(0.0541327 0.0332463 0)
(-0.0993778 0.0727939 0)
(0.530025 0.346651 0)
(-0.216668 0.151756 0)
(-0.0801994 0.125836 0)
(-0.115538 0.0962966 0)
(-0.133417 0.0672238 0)
(-0.146929 0.0337627 0)
(-0.152515 -0.00711188 0)
(-0.14262 -0.0550546 0)
(-0.121287 -0.102309 0)
(-0.0929778 -0.13784 0)
(-0.062531 -0.155425 0)
(-0.0335719 -0.153427 0)
(-0.0087977 -0.133437 0)
(0.012865 -0.0979222 0)
(0.0304326 -0.0589716 0)
(0.0443567 -0.0228962 0)
(0.0599546 0.0131493 0)
(0.0588221 0.05344 0)
(0.100333 0.061506 0)
(0.0988154 -0.00244107 0)
(0.0851504 -0.0293887 0)
(0.0784667 -0.0376903 0)
(0.0736154 -0.0383941 0)
(0.0670199 -0.0341077 0)
(0.0666009 -0.0208386 0)
(0.0772768 -0.01383 0)
(0.0862398 -0.010107 0)
(0.0916388 -0.00782413 0)
(0.0948783 -0.00591648 0)
(0.0962847 -0.00385547 0)
(0.0945167 -0.00119015 0)
(0.0882547 0.00248027 0)
(0.0757126 0.00774307 0)
(0.0597987 0.025098 0)
(0.0440613 0.0405833 0)
(0.0629781 0.0533444 0)
(-0.13139 0.094278 0)
(0.66268 0.403809 0)
(-0.262352 0.182677 0)
(-0.0350339 0.145257 0)
(-0.068749 0.111319 0)
(-0.0779459 0.079233 0)
(-0.0862935 0.0412493 0)
(-0.0890486 -0.00798824 0)
(-0.0740286 -0.0688151 0)
(-0.0534825 -0.125902 0)
(-0.031579 -0.165073 0)
(-0.0112753 -0.181842 0)
(0.00616118 -0.17599 0)
(0.0193252 -0.151481 0)
(0.030343 -0.114537 0)
(0.0401932 -0.0729567 0)
(0.0494376 -0.0337218 0)
(0.061936 0.00067548 0)
(0.076038 0.0197166 0)
(0.0903267 -0.000567241 0)
(0.0896838 -0.0213726 0)
(0.0826171 -0.0300337 0)
(0.0738104 -0.0325495 0)
(0.0655657 -0.0316294 0)
(0.0586216 -0.0266321 0)
(0.0568405 -0.015512 0)
(0.060394 -0.00902657 0)
(0.0647355 -0.00637186 0)
(0.0684587 -0.0048296 0)
(0.0717014 -0.00274954 0)
(0.0742083 0.000781061 0)
(0.0750578 0.00596801 0)
(0.0731638 0.0129864 0)
(0.0682546 0.0224378 0)
(0.0612076 0.0371778 0)
(0.0500554 0.0536295 0)
(0.074859 0.0727482 0)
(-0.00684758 0.101381 0)
(0.0557881 0.150674 0)
(-0.0835198 0.0748408 0)
(-0.277797 0.000488092 0)
(0.761894 0.451323 0)
(-0.308549 0.203338 0)
(0.00242991 0.143886 0)
(-0.0205842 0.116259 0)
(-0.01979 0.0857219 0)
(-0.0214998 0.0472948 0)
(-0.0143135 -0.0069383 0)
(0.0103152 -0.0859257 0)
(0.0269242 -0.146193 0)
(0.0388259 -0.182424 0)
(0.0460458 -0.194553 0)
(0.0488938 -0.18505 0)
(0.0486292 -0.158119 0)
(0.0472245 -0.119917 0)
(0.0460509 -0.0779378 0)
(0.0464679 -0.0397062 0)
(0.0508201 -0.00999039 0)
(0.0599684 0.00482473 0)
(0.0662446 -0.00105155 0)
(0.0649914 -0.0110138 0)
(0.0586059 -0.0188063 0)
(0.0504351 -0.0229112 0)
(0.0427972 -0.0236612 0)
(0.0368213 -0.0211351 0)
(0.0342701 -0.0157708 0)
(0.0354195 -0.0122941 0)
(0.0383734 -0.0108627 0)
(0.0420296 -0.00977494 0)
(0.0460896 -0.00763901 0)
(0.0502721 -0.00338484 0)
(0.0544827 0.00368351 0)
(0.0569999 0.0131864 0)
(0.0581661 0.0249442 0)
(0.0592909 0.0395785 0)
(0.0583671 0.0560001 0)
(0.0797089 0.0766957 0)
(0.0654478 0.0889843 0)
(0.0997223 0.0967313 0)
(0.117478 0.0571986 0)
(-0.136895 -0.0299281 0)
(0.815611 0.494187 0)
(-0.334124 0.18737 0)
(0.0322409 0.0937999 0)
(0.0390619 0.101055 0)
(0.0459311 0.0830003 0)
(0.0516236 0.0393702 0)
(0.0790979 -0.0311721 0)
(0.103109 -0.103704 0)
(0.113285 -0.157016 0)
(0.112861 -0.186331 0)
(0.104581 -0.192431 0)
(0.0907889 -0.178774 0)
(0.0740935 -0.149768 0)
(0.0575004 -0.111561 0)
(0.0429711 -0.0709088 0)
(0.0326164 -0.0356949 0)
(0.0281005 -0.0107561 0)
(0.0295007 0.000991537 0)
(0.0311362 -0.000280206 0)
(0.0296348 -0.00656885 0)
(0.0249831 -0.0126304 0)
(0.0188638 -0.0163695 0)
(0.0128385 -0.0177429 0)
(0.00803207 -0.017105 0)
(0.00567096 -0.0151959 0)
(0.0060131 -0.0141013 0)
(0.0080522 -0.013968 0)
(0.0110506 -0.0137422 0)
(0.0148458 -0.0123614 0)
(0.0195239 -0.00873992 0)
(0.0256925 -0.00163583 0)
(0.0333025 0.00886881 0)
(0.0400692 0.0208902 0)
(0.0478781 0.0341602 0)
(0.0558774 0.0479598 0)
(0.075452 0.064457 0)
(0.0882331 0.0697707 0)
(0.119671 0.0632091 0)
(0.163391 0.0513053 0)
(-0.0203529 0.0954879 0)
(0.921863 0.497285 0)
(-0.0766786 0.167419 0)
(0.110608 0.0261619 0)
(0.163737 0.0227928 0)
(0.161399 0.0155472 0)
(0.162865 -0.0293628 0)
(0.196488 -0.08041 0)
(0.21127 -0.125543 0)
(0.205358 -0.158277 0)
(0.185089 -0.173982 0)
(0.155583 -0.171673 0)
(0.121084 -0.153972 0)
(0.0852888 -0.124273 0)
(0.0523628 -0.0880734 0)
(0.024458 -0.0510588 0)
(0.00511396 -0.0219286 0)
(-0.00463207 -0.0044281 0)
(-0.00655893 0.00175864 0)
(-0.00643996 0.000663405 0)
(-0.00764062 -0.00366311 0)
(-0.0109405 -0.00801337 0)
(-0.0154387 -0.0110776 0)
(-0.0200734 -0.012848 0)
(-0.0239379 -0.0136846 0)
(-0.0263201 -0.0141356 0)
(-0.0272119 -0.0148866 0)
(-0.0271759 -0.0158706 0)
(-0.0265942 -0.0165844 0)
(-0.0254668 -0.0164988 0)
(-0.0234875 -0.0150364 0)
(-0.0198623 -0.0114658 0)
(-0.0117098 -0.00490997 0)
(-9.41784e-05 0.00445894 0)
(0.0110861 0.0137606 0)
(0.0226896 0.0208656 0)
(0.0398997 0.0277365 0)
(0.0554301 0.0224377 0)
(0.0795689 0.00564821 0)
(0.146409 0.0479777 0)
(-0.428338 0.212666 0)
(1.06591 0.444164 0)
(0.518237 0.2983 0)
(0.529532 0.249857 0)
(0.51839 0.182905 0)
(0.469836 0.122439 0)
(0.433156 0.0601131 0)
(0.392045 -0.00742349 0)
(0.34284 -0.0669797 0)
(0.289081 -0.107862 0)
(0.232742 -0.126611 0)
(0.175361 -0.125099 0)
(0.118902 -0.108911 0)
(0.0654552 -0.0822847 0)
(0.0202354 -0.0512621 0)
(-0.016102 -0.0208449 0)
(-0.0329472 -0.00607207 0)
(-0.0401251 0.000442138 0)
(-0.0416814 0.00220748 0)
(-0.0420598 0.00100844 0)
(-0.0432019 -0.00163935 0)
(-0.0458298 -0.00451723 0)
(-0.049479 -0.00704513 0)
(-0.0535045 -0.00913523 0)
(-0.0573695 -0.0108639 0)
(-0.0608172 -0.0123658 0)
(-0.0640104 -0.0137473 0)
(-0.0673529 -0.0148457 0)
(-0.0712204 -0.0153021 0)
(-0.0759668 -0.0146318 0)
(-0.0820652 -0.0121817 0)
(-0.0902078 -0.00711472 0)
(-0.101119 0.00142819 0)
(-0.112753 0.013322 0)
(-0.127985 0.0284141 0)
(-0.152908 0.0467845 0)
(-0.190233 0.0673933 0)
(-0.241635 0.0862252 0)
(-0.297563 0.0999184 0)
(-0.371647 0.106912 0)
(-0.65067 0.106305 0)
(0.233924 0.0528314 0)
(0.305889 0.115962 0)
(0.321217 0.091367 0)
(0.299642 0.0395774 0)
(0.275045 -0.0106029 0)
(0.244385 -0.0469395 0)
(0.203096 -0.0684126 0)
(0.154001 -0.075415 0)
(0.100436 -0.0686991 0)
(0.0461635 -0.0529169 0)
(-0.00863015 -0.0295146 0)
(-0.045134 -0.0114976 0)
(-0.0635923 -0.00313953 0)
(-0.0709232 -0.000757806 0)
(-0.0731586 -0.000283814 0)
(-0.0734767 -0.000982352 0)
(-0.0737783 -0.00258369 0)
(-0.0749168 -0.00467922 0)
(-0.0771319 -0.00676805 0)
(-0.0803877 -0.00854786 0)
(-0.0841839 -0.0100194 0)
(-0.088291 -0.0111411 0)
(-0.0927203 -0.0119156 0)
(-0.0976254 -0.0123096 0)
(-0.103157 -0.0121329 0)
(-0.109347 -0.0110406 0)
(-0.116065 -0.00856342 0)
(-0.122967 -0.00415732 0)
(-0.129429 0.00273877 0)
(-0.134403 0.0123366 0)
(-0.13837 0.0256174 0)
(-0.141807 0.0431792 0)
(-0.146019 0.0642222 0)
(-0.151773 0.0850511 0)
(-0.155359 0.095547 0)
(-0.141304 0.0734007 0)
(-0.110248 -0.0250099 0)
(-0.286614 -0.213742 0)
(0.120027 0.324335 0)
(0.00839042 0.203592 0)
(0.0392643 0.11845 0)
(0.0584776 0.0604343 0)
(0.0631257 0.021624 0)
(0.0601118 -0.0047866 0)
(0.0401973 -0.0199144 0)
(0.00541839 -0.0189546 0)
(-0.0365972 -0.00171887 0)
(-0.0701162 0.0128782 0)
(-0.091229 0.0208816 0)
(-0.100243 0.0232655 0)
(-0.102468 0.0233935 0)
(-0.102413 0.0234462 0)
(-0.101541 0.0241604 0)
(-0.100509 0.0252871 0)
(-0.099786 0.0264286 0)
(-0.0996585 0.0271785 0)
(-0.100184 0.0271132 0)
(-0.101325 0.0259078 0)
(-0.103119 0.0238738 0)
(-0.105496 0.021629 0)
(-0.108387 0.0194492 0)
(-0.111705 0.0174798 0)
(-0.115313 0.0158311 0)
(-0.118996 0.0146121 0)
(-0.122445 0.0139594 0)
(-0.125176 0.0140302 0)
(-0.126372 0.0155213 0)
(-0.124865 0.0198896 0)
(-0.119076 0.0282961 0)
(-0.107619 0.0417407 0)
(-0.0903519 0.0602414 0)
(-0.0683172 0.0804254 0)
(-0.0434462 0.0948376 0)
(-0.00758421 0.0857778 0)
(0.146942 0.00930556 0)
(-0.209932 -0.129684 0)
(-0.422116 -0.51603 0)
(-0.637319 -0.143275 0)
(-0.449399 0.177759 0)
(-0.357934 0.0560787 0)
(-0.213899 -0.00554009 0)
(-0.145611 -0.0477888 0)
(-0.117167 -0.070538 0)
(-0.112987 -0.0713624 0)
(-0.122345 -0.0626879 0)
(-0.134863 -0.0549764 0)
(-0.140347 -0.0505056 0)
(-0.138588 -0.0490661 0)
(-0.134127 -0.0499517 0)
(-0.128945 -0.0527747 0)
(-0.124482 -0.056303 0)
(-0.121038 -0.0599465 0)
(-0.118239 -0.0635891 0)
(-0.115826 -0.0672865 0)
(-0.113757 -0.0708883 0)
(-0.112107 -0.0739044 0)
(-0.111008 -0.0756838 0)
(-0.110621 -0.0757905 0)
(-0.11105 -0.0743576 0)
(-0.112257 -0.0719862 0)
(-0.114068 -0.0689143 0)
(-0.116259 -0.0652745 0)
(-0.118548 -0.0610868 0)
(-0.120565 -0.0562773 0)
(-0.121831 -0.0506306 0)
(-0.12171 -0.0438005 0)
(-0.119186 -0.0358136 0)
(-0.112353 -0.026689 0)
(-0.0984055 -0.0158826 0)
(-0.0748439 -0.00248593 0)
(-0.0415503 0.0143647 0)
(0.00931724 0.0362845 0)
(0.0618665 0.042347 0)
(0.109599 0.0240442 0)
(0.172058 -0.0159431 0)
(-0.196289 -0.082685 0)
)
;

boundaryField
{
    floor
    {
        type            noSlip;
    }
    ceiling
    {
        type            noSlip;
    }
    sWall
    {
        type            noSlip;
    }
    nWall
    {
        type            noSlip;
    }
    sideWalls
    {
        type            empty;
    }
    glass1
    {
        type            noSlip;
    }
    glass2
    {
        type            noSlip;
    }
    sun
    {
        type            noSlip;
    }
    Table_master
    {
        type            noSlip;
    }
    Table_slave
    {
        type            noSlip;
    }
    inlet
    {
        type            fixedValue;
        value           uniform (0.46194 -0.191342 0);
    }
    outlet
    {
        type            zeroGradient;
    }
}


// ************************************************************************* //
