/*--------------------------------*- C++ -*----------------------------------*\
  =========                 |
  \\      /  F ield         | OpenFOAM: The Open Source CFD Toolbox
   \\    /   O peration     | Website:  https://openfoam.org
    \\  /    A nd           | Version:  6
     \\/     M anipulation  |
\*---------------------------------------------------------------------------*/
FoamFile
{
    version     2.0;
    format      ascii;
    class       volScalarField;
    location    "47300.0000006491537";
    object      epsilon;
}
// * * * * * * * * * * * * * * * * * * * * * * * * * * * * * * * * * * * * * //

dimensions      [0 2 -3 0 0 0 0];

internalField   nonuniform List<scalar> 
778
(
0.000253123
0.000306374
0.000303051
0.000344259
0.000385159
0.000424998
0.000464467
0.000504754
0.00054759
0.000595692
0.000644085
0.000692395
0.000742277
0.000798538
0.000860218
8.94377e-05
0.0002625
0.000268848
0.000249743
0.000219901
0.000183923
0.000152225
0.000126453
0.000105862
8.94079e-05
7.62628e-05
6.56133e-05
5.68196e-05
4.93561e-05
4.27502e-05
3.65032e-05
3.1807e-05
2.35948e-05
0.000796994
0.00144327
0.000287036
0.000259652
0.000261758
0.000267733
0.00027663
0.00029006
0.000310311
0.000340505
0.000379689
0.000430759
0.000499081
0.000600213
0.000785278
0.00112881
0.000978276
0.000858051
0.000512353
0.000369599
0.000294199
0.000242782
0.000203905
0.000186698
0.000154536
0.000124894
0.000100625
8.14397e-05
6.64909e-05
5.47957e-05
4.56105e-05
3.86904e-05
3.45023e-05
3.27428e-05
6.5807e-05
4.80818e-05
0.00163061
0.00407935
0.000407453
0.000242984
0.000229162
0.000231073
0.000238287
0.000250553
0.000268451
0.000292704
0.000324804
0.000366829
0.000421163
0.000494824
0.000601186
0.000724425
0.000829471
0.00158376
0.00102836
0.000512586
0.00036784
0.000294318
0.000262035
0.000551136
0.000362253
0.000250418
0.000181079
0.000136105
0.000105787
8.46889e-05
6.97574e-05
5.9416e-05
4.51029e-05
3.79569e-05
0.000108332
7.0804e-05
0.00285349
0.00877121
0.000709995
0.000240777
0.000202529
0.000200059
0.000203225
0.000209843
0.000220649
0.000237551
0.000263219
0.000299929
0.000349096
0.000412189
0.000487864
0.000560085
0.000612247
0.000824155
0.00156469
0.000729227
0.000459924
0.000358356
0.000301928
0.000291792
0.00081407
0.000612475
0.00048158
0.000388117
0.000318745
0.000263982
0.000218472
0.000178774
0.000141638
8.36746e-05
5.48045e-05
0.00014906
9.44939e-05
0.00454595
0.0158291
0.00134661
0.000258394
0.000175774
0.000166826
0.000165825
0.000167792
0.000173945
0.000187441
0.000211668
0.000248314
0.000297673
0.000359151
0.000427574
0.000488957
0.000528346
0.000582294
0.00062726
0.000483123
0.000393481
0.000331045
0.000282305
0.000248616
0.000247809
0.000226729
0.000202866
0.000180972
0.000162588
0.000146432
0.000131776
0.000118202
0.000105062
8.44485e-05
6.4098e-05
0.000105334
0.000138884
0.000160478
0.000379087
0.000329308
0.00676357
0.0248814
0.00255405
0.000318131
0.000155571
0.000137092
0.000132145
0.000130703
0.000134466
0.000148557
0.0001767
0.000218038
0.000270695
0.000333918
0.000401445
0.000462323
0.000502686
0.000521432
0.000504585
0.000438148
0.00037379
0.000315648
0.00026474
0.000223375
0.000193274
0.000169613
0.000150798
0.00013561
0.000123273
0.00011272
0.000103263
9.45091e-05
8.60861e-05
7.59119e-05
6.52682e-05
7.75672e-05
9.97521e-05
0.000214559
0.00109726
0.000560199
0.00967222
0.0336408
0.00458499
0.000465084
0.000150868
0.00011636
0.0001071
0.000103289
0.000107081
0.000127928
0.000166138
0.000215874
0.000273226
0.000339886
0.000409048
0.000470124
0.000509855
0.000520182
0.00049412
0.000437521
0.000371804
0.000307472
0.000250539
0.000204421
0.00016973
0.000144548
0.000126326
0.000112744
0.000102284
9.37047e-05
8.62017e-05
7.93231e-05
7.27948e-05
6.61484e-05
6.02668e-05
6.36253e-05
7.68362e-05
0.000179507
0.00166092
0.000926092
0.0127592
0.04041
0.00749214
0.000871512
0.000194296
0.000115383
9.73852e-05
9.1452e-05
9.86315e-05
0.000137701
0.000189285
0.000246252
0.000307007
0.000373733
0.000444642
0.000507888
0.000547195
0.000550743
0.000515545
0.000451466
0.000375483
0.000300958
0.000236477
0.000185954
0.000149308
0.000123988
0.000106731
9.45999e-05
8.57644e-05
7.88197e-05
7.28936e-05
6.75144e-05
6.24573e-05
5.76554e-05
5.3871e-05
5.5463e-05
7.08533e-05
0.000379121
0.00577584
0.00214599
0.0138273
0.0414589
0.0139361
0.00316489
0.000630191
0.000208011
0.00013265
0.000115958
0.000142382
0.000192832
0.000249216
0.000306389
0.000367377
0.000436737
0.000511227
0.000575849
0.000610914
0.000603052
0.00055201
0.000470863
0.00037846
0.000290931
0.000218287
0.000164051
0.000126811
0.000102653
8.73414e-05
7.74059e-05
7.07235e-05
6.57147e-05
6.14919e-05
5.76253e-05
5.39556e-05
5.05499e-05
4.81369e-05
5.1341e-05
0.000100275
0.00119576
0.0154379
0.00314886
0.0130038
0.0283685
0.0144168
0.00572732
0.00210431
0.00083444
0.000413531
0.000276725
0.000278809
0.000314372
0.000355915
0.000401676
0.000458776
0.000531359
0.000610611
0.000674513
0.00069891
0.00067053
0.000593589
0.000486526
0.000372621
0.000270774
0.000191273
0.000135886
0.000100791
7.99816e-05
6.80657e-05
6.12869e-05
5.7202e-05
5.42466e-05
5.16758e-05
4.91886e-05
4.67312e-05
4.45023e-05
4.35759e-05
5.23745e-05
0.000211664
0.00377855
0.0115398
0.0032901
0.0106884
0.0193556
0.0120387
0.00630025
0.00317416
0.00167431
0.000986319
0.000678596
0.000559599
0.000516953
0.00051016
0.000531499
0.000584263
0.000663897
0.000748859
0.000806152
0.000807694
0.000743876
0.000627593
0.000485746
0.000347543
0.000233752
0.000152769
0.000102026
7.37434e-05
5.8948e-05
5.14895e-05
4.80582e-05
4.62616e-05
4.49415e-05
4.36326e-05
4.21971e-05
4.07286e-05
3.97288e-05
4.11934e-05
5.77782e-05
0.000249333
0.00299913
0.0103213
0.00338357
0.00807123
0.0137693
0.00969184
0.00593293
0.00356914
0.00222692
0.00149025
0.0010924
0.000868734
0.00074311
0.000685713
0.000690569
0.000751988
0.000847114
0.000934766
0.000970087
0.000926367
0.000804973
0.000634092
0.000451705
0.000293097
0.000177703
0.000107314
6.96475e-05
5.26075e-05
4.44672e-05
4.06564e-05
3.92636e-05
3.86789e-05
3.82276e-05
3.76463e-05
3.69229e-05
3.6424e-05
3.74556e-05
4.44252e-05
7.84853e-05
0.000308171
0.00234432
0.00823408
0.00400668
0.00612355
0.0101688
0.00779173
0.00531259
0.00357009
0.00246901
0.00178781
0.00136802
0.00109271
0.000925876
0.000859523
0.000888134
0.000985873
0.00110165
0.00117327
0.00115194
0.00102653
0.000820464
0.000585203
0.000368266
0.000208658
0.000114761
7.21582e-05
5.22008e-05
4.27507e-05
3.80521e-05
3.57994e-05
3.50064e-05
3.47141e-05
3.44996e-05
3.42447e-05
3.4192e-05
3.5486e-05
4.2023e-05
6.77759e-05
0.000163456
0.000506411
0.00229942
0.00692047
0.0042049
0.00618435
0.00781503
0.00680641
0.00474039
0.00336615
0.00246275
0.00186601
0.00146246
0.00119459
0.00106477
0.00107162
0.00118373
0.0013351
0.00144393
0.00144254
0.0013011
0.00104915
0.000739991
0.00045613
0.000238097
0.000131057
8.15546e-05
5.94636e-05
4.85571e-05
4.25139e-05
3.89302e-05
3.68769e-05
3.589e-05
3.54523e-05
3.52221e-05
3.52583e-05
3.63805e-05
4.18658e-05
6.34153e-05
0.000139102
0.000366816
0.000974676
0.00263193
0.00633144
0.00345158
0.00454684
0.00511649
0.00418636
0.00336244
0.00264018
0.00207045
0.00164927
0.0013619
0.0012447
0.00130115
0.00148143
0.00169353
0.00183307
0.00182346
0.00163944
0.00129989
0.000905645
0.000518216
0.000277852
0.000154513
0.000101039
7.75767e-05
6.56023e-05
5.80747e-05
5.27804e-05
4.90579e-05
4.66513e-05
4.53082e-05
4.496e-05
4.51746e-05
4.61452e-05
4.9323e-05
6.0075e-05
9.58862e-05
0.000207645
0.000520083
0.00128994
0.00290153
0.00524248
0.00289112
0.00139829
0.00142842
0.00143066
0.00135209
0.00131034
0.00142156
0.00170666
0.00204511
0.00231293
0.00241527
0.00230009
0.00198297
0.00152932
0.00097722
0.000564939
0.000310315
0.000185859
0.000133056
0.000110633
9.87309e-05
9.04895e-05
8.39917e-05
7.896e-05
7.5546e-05
7.38795e-05
7.39101e-05
7.54222e-05
7.86211e-05
8.3157e-05
9.02618e-05
0.000104895
0.000142336
0.000244393
0.00051392
0.00116435
0.00257365
0.00552873
0.00288073
0.00118806
0.0017136
0.0019511
0.00230656
0.00275297
0.00315913
0.00334186
0.00331226
0.00309303
0.00270362
0.00213313
0.00151188
0.000974629
0.000571385
0.000338819
0.000229303
0.000184895
0.000166166
0.000155929
0.000148465
0.000142395
0.000137782
0.000135193
0.000135306
0.000138632
0.00014529
0.000154854
0.0001666
0.000180696
0.000197428
0.000219891
0.000259186
0.000343786
0.000542082
0.0010279
0.00238906
0.00466229
0.00370196
0.00741655
0.00810275
0.00481927
0.00340321
0.00373223
0.00413956
0.00414942
0.00393748
0.00358309
0.00313094
0.00262759
0.00208514
0.0015328
0.00104163
0.00067454
0.000452919
0.000348364
0.000306502
0.000290235
0.0002827
0.000277603
0.000272697
0.0002676
0.000263092
0.000260666
0.000262007
0.000268551
0.000281319
0.000301051
0.000328356
0.00036356
0.000407468
0.000462971
0.000544795
0.000680824
0.000922201
0.00143112
0.00319717
0.00450093
0.00412619
0.00650115
0.00513856
0.00435759
0.00461468
0.00453689
0.00427093
0.00369105
0.00304445
0.00245838
0.00196556
0.00156294
0.0012399
0.00098439
0.000790059
0.00064917
0.000557671
0.000505845
0.000480746
0.000472495
0.000474473
0.000481996
0.000491776
0.00050191
0.000511967
0.000522937
0.000537022
0.00055742
0.000588231
0.000634508
0.0007024
0.000799332
0.000933868
0.00111471
0.00134637
0.00164601
0.00206626
0.00270636
0.00409818
0.00567503
0.00452246
0.00535834
0.00337378
0.00332592
0.00362955
0.00389708
0.00357263
0.00298494
0.00238323
0.0018649
0.00144264
0.00110315
0.000835564
0.000637838
0.00050998
0.000445364
0.000419941
0.000417334
0.000427358
0.00044407
0.000463983
0.000484958
0.000505794
0.000526141
0.000546498
0.000568158
0.000593109
0.000624052
0.00066473
0.000720695
0.000800213
0.000914585
0.00107686
0.00129873
0.00158781
0.00195044
0.00240325
0.00295147
0.00361035
0.00434272
0.00362094
)
;

boundaryField
{
    floor
    {
        Cmu             0.09;
        kappa           0.41;
        E               9.8;
        type            epsilonWallFunction;
        value           nonuniform List<scalar> 
36
(
0.000860218
8.94377e-05
0.0002625
0.000268848
0.000249743
0.000219901
0.000183923
0.000152225
0.000126453
0.000105862
8.94079e-05
7.62628e-05
6.56133e-05
5.68196e-05
4.93561e-05
4.27502e-05
3.65032e-05
3.1807e-05
2.35948e-05
2.35948e-05
4.80818e-05
7.0804e-05
9.44939e-05
0.000160478
0.000379087
0.000329308
0.000860218
0.00112881
0.000978276
0.000858051
8.94377e-05
0.000858051
0.000512353
0.00158376
0.00102836
0.00156469
)
;
    }
    ceiling
    {
        Cmu             0.09;
        kappa           0.41;
        E               9.8;
        type            epsilonWallFunction;
        value           nonuniform List<scalar> 
43
(
0.00535834
0.00337378
0.00332592
0.00362955
0.00389708
0.00357263
0.00298494
0.00238323
0.0018649
0.00144264
0.00110315
0.000835564
0.000637838
0.00050998
0.000445364
0.000419941
0.000417334
0.000427358
0.00044407
0.000463983
0.000484958
0.000505794
0.000526141
0.000546498
0.000568158
0.000593109
0.000624052
0.00066473
0.000720695
0.000800213
0.000914585
0.00107686
0.00129873
0.00158781
0.00195044
0.00240325
0.00295147
0.00361035
0.00434272
0.00362094
0.00454684
0.00511649
0.00118806
)
;
    }
    sWall
    {
        Cmu             0.09;
        kappa           0.41;
        E               9.8;
        type            epsilonWallFunction;
        value           nonuniform List<scalar> 9(0.0130038 0.0106884 0.00807123 0.00612355 0.00618435 0.00454684 0.00741655 0.00650115 0.00535834);
    }
    nWall
    {
        Cmu             0.09;
        kappa           0.41;
        E               9.8;
        type            epsilonWallFunction;
        value           nonuniform List<scalar> 
14
(
0.000329308
0.000560199
0.000926092
0.0032901
0.00338357
0.00400668
0.0042049
0.00345158
0.00289112
0.00288073
0.00370196
0.00412619
0.00452246
0.00362094
)
;
    }
    sideWalls
    {
        type            empty;
    }
    glass1
    {
        Cmu             0.09;
        kappa           0.41;
        E               9.8;
        type            epsilonWallFunction;
        value           nonuniform List<scalar> 9(0.000253123 0.000796994 0.00163061 0.00285349 0.00454595 0.00676357 0.00967222 0.0127592 0.0138273);
    }
    glass2
    {
        Cmu             0.09;
        kappa           0.41;
        E               9.8;
        type            epsilonWallFunction;
        value           nonuniform List<scalar> 2(0.00214599 0.00314886);
    }
    sun
    {
        Cmu             0.09;
        kappa           0.41;
        E               9.8;
        type            epsilonWallFunction;
        value           nonuniform List<scalar> 
14
(
0.000253123
0.000306374
0.000303051
0.000344259
0.000385159
0.000424998
0.000464467
0.000504754
0.00054759
0.000595692
0.000644085
0.000692395
0.000742277
0.000798538
)
;
    }
    Table_master
    {
        Cmu             0.09;
        kappa           0.41;
        E               9.8;
        type            epsilonWallFunction;
        value           nonuniform List<scalar> 9(0.000551136 0.000362253 0.000250418 0.000181079 0.000136105 0.000105787 8.46889e-05 6.97574e-05 5.9416e-05);
    }
    Table_slave
    {
        Cmu             0.09;
        kappa           0.41;
        E               9.8;
        type            epsilonWallFunction;
        value           nonuniform List<scalar> 9(0.00081407 0.000612475 0.00048158 0.000388117 0.000318745 0.000263982 0.000218472 0.000178774 0.000141638);
    }
    inlet
    {
        type            turbulentMixingLengthDissipationRateInlet;
        mixingLength    0.01;
        phi             phi;
        k               k;
        value           uniform 0.000471671;
    }
    outlet
    {
        type            zeroGradient;
    }
}


// ************************************************************************* //
