/*--------------------------------*- C++ -*----------------------------------*\
  =========                 |
  \\      /  F ield         | OpenFOAM: The Open Source CFD Toolbox
   \\    /   O peration     | Website:  https://openfoam.org
    \\  /    A nd           | Version:  6
     \\/     M anipulation  |
\*---------------------------------------------------------------------------*/
FoamFile
{
    version     2.0;
    format      ascii;
    class       volScalarField;
    location    "47300.0000006491537";
    object      k;
}
// * * * * * * * * * * * * * * * * * * * * * * * * * * * * * * * * * * * * * //

dimensions      [0 2 -2 0 0 0 0];

internalField   nonuniform List<scalar> 
778
(
0.00158595
0.00180123
0.00178818
0.00194682
0.00209811
0.0022404
0.00237705
0.00251258
0.0026528
0.00280596
0.00295594
0.00310196
0.00324921
0.00341139
0.00358487
0.000792649
0.00162488
0.00165097
0.0015718
0.00144395
0.00128182
0.00112995
0.000998514
0.00088694
0.000792476
0.000712761
0.000644758
0.000585779
0.000533288
0.000484575
0.000436136
0.000397878
0.000326046
0.003407
0.00643372
0.00268775
0.00274638
0.00288813
0.00305474
0.00323509
0.00343078
0.00364385
0.00387391
0.0041256
0.0043789
0.00459419
0.00469909
0.0045933
0.00429683
0.00390579
0.00357885
0.00253775
0.00281286
0.0029543
0.00289585
0.0026625
0.00226344
0.00190439
0.00160843
0.00136898
0.00117539
0.00101675
0.000885042
0.000773832
0.000681046
0.000615055
0.000574538
0.000864588
0.00052407
0.0054908
0.0127819
0.00347827
0.0032124
0.00329776
0.00345562
0.00363698
0.00384107
0.00407119
0.00432748
0.00463516
0.00501002
0.00544964
0.00595873
0.00652968
0.00685857
0.00627652
0.00538512
0.004038
0.00416984
0.00417279
0.00397468
0.00357639
0.00266425
0.00201408
0.00157463
0.00126857
0.0010487
0.000886523
0.000764339
0.000671628
0.000603491
0.000551337
0.000548594
0.0011666
0.000678331
0.00797356
0.0217602
0.00449165
0.00339099
0.00334177
0.00343833
0.00354965
0.00366902
0.00380908
0.00399112
0.00425864
0.00464759
0.00516989
0.00582359
0.00655321
0.00713363
0.00722783
0.0072454
0.00534179
0.00554779
0.00537529
0.00512529
0.00478668
0.00434776
0.00345549
0.00285843
0.00243509
0.00210884
0.0018494
0.00163099
0.00143769
0.00125778
0.00107694
0.000800092
0.000659352
0.00142429
0.000822256
0.0108764
0.0336378
0.00621363
0.00342523
0.00315849
0.00316713
0.00318968
0.00320988
0.00325202
0.00336083
0.00359424
0.00398834
0.00455213
0.00527504
0.00608511
0.00681594
0.00728143
0.00764175
0.00751369
0.00665166
0.00607181
0.00557834
0.00509877
0.00462916
0.00412283
0.00366509
0.00327421
0.00293639
0.00263005
0.00234657
0.00207806
0.00181743
0.00155409
0.0012211
0.000929228
0.00119115
0.00121651
0.00117044
0.00207595
0.00189008
0.0141749
0.0476033
0.00928542
0.00349026
0.00290871
0.00282284
0.00276441
0.00269946
0.00266406
0.00273435
0.00298051
0.0034137
0.00402249
0.00479623
0.00565158
0.00645892
0.00706575
0.00740376
0.00731992
0.00678702
0.00621327
0.00563626
0.00507391
0.00455578
0.00409112
0.00369539
0.0033627
0.00307317
0.00280607
0.00255063
0.00229798
0.00204127
0.00177316
0.00147076
0.00117692
0.00111173
0.00111103
0.00173105
0.00517541
0.00269346
0.0179923
0.060611
0.0143627
0.00381983
0.00271533
0.00252943
0.00241174
0.00229386
0.00222081
0.00231144
0.00263031
0.00313928
0.00380164
0.00463062
0.00552704
0.00636459
0.00699808
0.0073248
0.00725117
0.00681554
0.00621385
0.00555409
0.00491161
0.00434265
0.00387242
0.00350041
0.00320671
0.00296176
0.00274114
0.00252859
0.00231269
0.00208633
0.00184462
0.00158247
0.00132568
0.00115742
0.0010914
0.00158053
0.00642929
0.00376569
0.0216414
0.0704859
0.0214404
0.00510257
0.00274277
0.00237174
0.00220995
0.00208161
0.00202592
0.00221927
0.00264992
0.00323137
0.00393777
0.00477509
0.00569938
0.00657322
0.00722233
0.00751174
0.00738191
0.00689445
0.00619738
0.00542687
0.00469177
0.00406476
0.00357472
0.00321284
0.00294809
0.00274151
0.00256457
0.0023958
0.00222156
0.00203451
0.00183128
0.00161222
0.0013947
0.00122392
0.0011541
0.00219662
0.0145029
0.0065937
0.0228329
0.0694905
0.0325394
0.0110584
0.00406677
0.00258694
0.00223504
0.00210244
0.00218929
0.00251186
0.00300035
0.00360262
0.00433401
0.00521516
0.00618812
0.0070899
0.00771783
0.00792206
0.00766295
0.00702448
0.00616542
0.00524963
0.00440896
0.00372372
0.00321774
0.00286995
0.00263671
0.00247032
0.00233737
0.00221196
0.0020793
0.0019324
0.001769
0.00159105
0.00141096
0.00127202
0.00134233
0.00443412
0.0297664
0.00851575
0.021917
0.0516299
0.0336446
0.0174341
0.00858552
0.00475661
0.00325912
0.00272847
0.00285153
0.0032095
0.00367164
0.00424688
0.0049979
0.00594336
0.00698061
0.00789314
0.0084445
0.0084837
0.00800216
0.00712323
0.00604271
0.00495699
0.00401491
0.00329373
0.00280032
0.00249081
0.0023044
0.00218657
0.00209847
0.0020133
0.0019176
0.0018058
0.00167678
0.0015331
0.0013853
0.00128388
0.00169199
0.0108402
0.0248348
0.00876763
0.0192314
0.0394337
0.0302374
0.0195653
0.01218
0.0079356
0.00571384
0.0046659
0.00435882
0.00439667
0.00465039
0.00514533
0.00593882
0.00698896
0.00809887
0.00897316
0.00934765
0.00909635
0.00827128
0.0070602
0.0057146
0.00446536
0.00346763
0.00277351
0.00235204
0.00211829
0.00199414
0.00192681
0.00187713
0.00182338
0.00175574
0.00167053
0.00156786
0.0014519
0.00133556
0.00128765
0.00191762
0.00992862
0.0245971
0.00893149
0.0159475
0.0315867
0.0266514
0.0195386
0.0139745
0.0102817
0.00802426
0.00674753
0.00604484
0.00572699
0.00578008
0.00627498
0.00721585
0.00843003
0.00958141
0.0102946
0.0103152
0.0095917
0.00828247
0.00666466
0.00506074
0.00372821
0.00279901
0.00223882
0.00195857
0.0018189
0.0017504
0.00171698
0.0016897
0.00165438
0.00160427
0.00153673
0.00145333
0.001363
0.00128599
0.00133674
0.00231121
0.009118
0.0222817
0.00999606
0.0132659
0.02568
0.0233568
0.0186924
0.0145843
0.0115876
0.00954207
0.00820734
0.00729715
0.0068372
0.00695688
0.0077234
0.00899006
0.0103828
0.0114241
0.0117165
0.0111062
0.00968653
0.00778043
0.00576075
0.0040359
0.0028402
0.00219669
0.00186372
0.00170084
0.00162126
0.0015819
0.00156086
0.00153952
0.00150894
0.00146482
0.00140675
0.00134002
0.00128149
0.00129739
0.00169844
0.00331413
0.00972777
0.0206215
0.0103311
0.0133536
0.0224304
0.0220681
0.0177658
0.0143959
0.011896
0.0100846
0.00876868
0.00791694
0.00777282
0.00847468
0.00987799
0.011545
0.0128958
0.0134212
0.0128466
0.0112641
0.00896445
0.00651225
0.00430455
0.00295855
0.00221752
0.00184717
0.00166254
0.00156783
0.00151583
0.00148369
0.00145924
0.00143168
0.00139538
0.00134841
0.00129373
0.00124701
0.00126762
0.00156946
0.00264885
0.00519483
0.0106567
0.0191859
0.0090596
0.0108778
0.0117684
0.0129255
0.0125537
0.0113755
0.0100759
0.0089481
0.00820375
0.00830093
0.00941442
0.0112975
0.0133786
0.0149799
0.0155564
0.0148471
0.0128629
0.0101164
0.00699553
0.00461666
0.0031149
0.00232494
0.00193581
0.00173962
0.00162942
0.0015593
0.00150881
0.00146747
0.00142903
0.00138927
0.00134517
0.00129802
0.00125688
0.00125334
0.00138823
0.00193603
0.00341438
0.00640844
0.0111842
0.0160529
0.00804947
0.00353952
0.0048174
0.00598935
0.0065979
0.00727935
0.00879021
0.0113037
0.014138
0.0165674
0.0180175
0.0181139
0.0167728
0.0142131
0.010575
0.00726642
0.00478041
0.00328197
0.00251559
0.00215546
0.00197348
0.00186278
0.00178141
0.00171428
0.00165592
0.00160453
0.00156038
0.00152503
0.00150326
0.00149451
0.00150598
0.00156564
0.0017602
0.00230778
0.00364306
0.0063398
0.0108422
0.0176113
0.00802148
0.00444592
0.00628562
0.00810369
0.0110152
0.0146853
0.0181441
0.0203842
0.0214574
0.0213984
0.0201874
0.0176389
0.0141352
0.0104369
0.00711824
0.0047831
0.00344618
0.00280978
0.00252885
0.00239367
0.00231263
0.00225253
0.00220257
0.00216125
0.00213176
0.00211959
0.00212961
0.00216263
0.00221511
0.00228762
0.00237867
0.00250401
0.00272711
0.00319856
0.00422622
0.00642575
0.0113471
0.0169596
0.00948503
0.0150732
0.0245256
0.0181325
0.0143945
0.0169955
0.0206801
0.022799
0.0234963
0.0230479
0.0217035
0.0197008
0.0170531
0.0138463
0.0104551
0.00743513
0.00526946
0.00407005
0.0035346
0.00332567
0.00324787
0.00321648
0.00319527
0.00316936
0.00313704
0.00310642
0.00309102
0.00310436
0.00315595
0.00325057
0.00338975
0.00357269
0.00380372
0.00410059
0.00453328
0.00522791
0.0063997
0.00863538
0.0148534
0.0177805
0.0101977
0.0138058
0.0170595
0.0178325
0.0207455
0.0216818
0.0221012
0.0211068
0.0192977
0.017184
0.0150145
0.0128851
0.0108341
0.00889282
0.00715958
0.00576032
0.00482522
0.00431338
0.00408292
0.00401776
0.00404681
0.00412378
0.00421565
0.00430079
0.00437028
0.00442791
0.00448722
0.00456652
0.00468501
0.00486198
0.00511914
0.00548435
0.00599361
0.00668843
0.00759796
0.00879311
0.0104085
0.0127256
0.0172594
0.0205346
0.0108414
0.0121363
0.00891551
0.008831
0.00936061
0.00981512
0.00926252
0.00821665
0.00707152
0.0060048
0.00506003
0.00423106
0.0035155
0.00293623
0.00252945
0.00231116
0.00222246
0.00221334
0.00224869
0.00230691
0.00237531
0.00244627
0.00251574
0.00258267
0.00264881
0.00271834
0.00279742
0.00289406
0.00301881
0.00318649
0.00341752
0.00373677
0.00416747
0.00472219
0.00539887
0.00619153
0.00711527
0.00815825
0.00932925
0.0105495
0.00934714
)
;

boundaryField
{
    floor
    {
        type            kqRWallFunction;
        value           nonuniform List<scalar> 
36
(
0.00358487
0.000792649
0.00162488
0.00165097
0.0015718
0.00144395
0.00128182
0.00112995
0.000998514
0.00088694
0.000792476
0.000712761
0.000644758
0.000585779
0.000533288
0.000484575
0.000436136
0.000397878
0.000326046
0.000326046
0.00052407
0.000678331
0.000822256
0.00117044
0.00207595
0.00189008
0.00358487
0.00429683
0.00390579
0.00357885
0.000792649
0.00357885
0.00253775
0.00538512
0.004038
0.00534179
)
;
    }
    ceiling
    {
        type            kqRWallFunction;
        value           nonuniform List<scalar> 
43
(
0.0121363
0.00891551
0.008831
0.00936061
0.00981512
0.00926252
0.00821665
0.00707152
0.0060048
0.00506003
0.00423106
0.0035155
0.00293623
0.00252945
0.00231116
0.00222246
0.00221334
0.00224869
0.00230691
0.00237531
0.00244627
0.00251574
0.00258267
0.00264881
0.00271834
0.00279742
0.00289406
0.00301881
0.00318649
0.00341752
0.00373677
0.00416747
0.00472219
0.00539887
0.00619153
0.00711527
0.00815825
0.00932925
0.0105495
0.00934714
0.0108778
0.0117684
0.00444592
)
;
    }
    sWall
    {
        type            kqRWallFunction;
        value           nonuniform List<scalar> 9(0.021917 0.0192314 0.0159475 0.0132659 0.0133536 0.0108778 0.0150732 0.0138058 0.0121363);
    }
    nWall
    {
        type            kqRWallFunction;
        value           nonuniform List<scalar> 
14
(
0.00189008
0.00269346
0.00376569
0.00876763
0.00893149
0.00999606
0.0103311
0.0090596
0.00804947
0.00802148
0.00948503
0.0101977
0.0108414
0.00934714
)
;
    }
    sideWalls
    {
        type            empty;
    }
    glass1
    {
        type            kqRWallFunction;
        value           nonuniform List<scalar> 9(0.00158595 0.003407 0.0054908 0.00797356 0.0108764 0.0141749 0.0179923 0.0216414 0.0228329);
    }
    glass2
    {
        type            kqRWallFunction;
        value           nonuniform List<scalar> 2(0.0065937 0.00851575);
    }
    sun
    {
        type            kqRWallFunction;
        value           nonuniform List<scalar> 
14
(
0.00158595
0.00180123
0.00178818
0.00194682
0.00209811
0.0022404
0.00237705
0.00251258
0.0026528
0.00280596
0.00295594
0.00310196
0.00324921
0.00341139
)
;
    }
    Table_master
    {
        type            kqRWallFunction;
        value           nonuniform List<scalar> 9(0.00266425 0.00201408 0.00157463 0.00126857 0.0010487 0.000886523 0.000764339 0.000671628 0.000603491);
    }
    Table_slave
    {
        type            kqRWallFunction;
        value           nonuniform List<scalar> 9(0.00345549 0.00285843 0.00243509 0.00210884 0.0018494 0.00163099 0.00143769 0.00125778 0.00107694);
    }
    inlet
    {
        type            turbulentIntensityKineticEnergyInlet;
        intensity       0.05;
        value           uniform 0.0009375;
    }
    outlet
    {
        type            zeroGradient;
    }
}


// ************************************************************************* //
