/*--------------------------------*- C++ -*----------------------------------*\
  =========                 |
  \\      /  F ield         | OpenFOAM: The Open Source CFD Toolbox
   \\    /   O peration     | Website:  https://openfoam.org
    \\  /    A nd           | Version:  6
     \\/     M anipulation  |
\*---------------------------------------------------------------------------*/
FoamFile
{
    version     2.0;
    format      ascii;
    class       volScalarField;
    location    "47300.0000006491537";
    object      nut;
}
// * * * * * * * * * * * * * * * * * * * * * * * * * * * * * * * * * * * * * //

dimensions      [0 2 -1 0 0 0 0];

internalField   nonuniform List<scalar> 
778
(
0.000894312
0.00095308
0.000949622
0.000990848
0.00102863
0.00106294
0.00109487
0.00112565
0.00115663
0.00118956
0.00122093
0.00125072
0.00128007
0.00131162
0.00134456
0.000632242
0.000905226
0.000912464
0.000890317
0.00085334
0.000804003
0.000754873
0.000709614
0.000668794
0.000632176
0.000599539
0.000570221
0.000543516
0.000518592
0.00049434
0.000468982
0.00044794
0.000405494
0.00131078
0.00258119
0.00226507
0.0026144
0.00286797
0.00313682
0.00340499
0.00365209
0.00385093
0.00396659
0.0040345
0.00400625
0.00380619
0.00331104
0.00241807
0.00147203
0.00140346
0.00134343
0.00113128
0.00192667
0.00266999
0.00310869
0.00312892
0.00246968
0.00211214
0.00186426
0.00167623
0.00152676
0.00139928
0.00128654
0.0011816
0.00107893
0.000986784
0.000907329
0.00102233
0.000514092
0.00166403
0.0036045
0.00267234
0.00382228
0.0042711
0.004651
0.00499603
0.00529965
0.00555676
0.00575816
0.00595321
0.00615825
0.0063464
0.00645801
0.00638289
0.00584407
0.00427444
0.00164795
0.00142701
0.00305292
0.00426027
0.00483092
0.00439312
0.00115914
0.00100783
0.000891121
0.00079984
0.000727228
0.000668637
0.000620852
0.000581982
0.000551671
0.000606558
0.000713599
0.00113066
0.000584882
0.00200526
0.00485859
0.00255741
0.00429815
0.00496261
0.00531837
0.00558003
0.00577364
0.00591807
0.00603497
0.00620109
0.00648156
0.00689065
0.00740505
0.00792232
0.00817729
0.00767948
0.00573269
0.0016413
0.00379856
0.00565406
0.00659727
0.00682978
0.00583043
0.00132008
0.00120063
0.00110816
0.00103126
0.000965743
0.000906926
0.000851488
0.000796431
0.000736955
0.000688539
0.000713938
0.00122484
0.000643951
0.002342
0.0064334
0.00258042
0.00408638
0.00510795
0.00541143
0.00552187
0.00552649
0.00547189
0.0054234
0.00549291
0.00576536
0.00626516
0.00697295
0.00779415
0.00855113
0.00903146
0.0090258
0.00810031
0.00824223
0.00843247
0.0084599
0.0082881
0.00775742
0.00617329
0.00533219
0.00475606
0.00428804
0.00382898
0.00338432
0.00294931
0.00251498
0.00206895
0.00158909
0.00121239
0.00121228
0.000959007
0.000768286
0.00102315
0.000976335
0.00267365
0.00819677
0.0030382
0.0034463
0.00489458
0.00523123
0.00520473
0.00501777
0.00475025
0.00452957
0.00452466
0.00481017
0.00537964
0.00620016
0.00716071
0.00812114
0.00893844
0.00946127
0.00955698
0.00946193
0.00929513
0.00905779
0.00875202
0.00836246
0.00779388
0.00724608
0.00674873
0.00626793
0.00574873
0.00519438
0.00460245
0.00396799
0.00328706
0.00256459
0.00191002
0.00143404
0.0011137
0.00125694
0.00219697
0.00116553
0.00301223
0.00982833
0.00404928
0.00282357
0.00439837
0.00494862
0.0048878
0.00458485
0.00414527
0.00375873
0.0037479
0.00410869
0.00476062
0.00567789
0.00672131
0.00775482
0.00864479
0.00928281
0.00957694
0.00955529
0.00934652
0.00902948
0.00866591
0.00830285
0.00795151
0.00762904
0.00732602
0.00700244
0.00661147
0.00614098
0.0055842
0.00493863
0.00420686
0.00340717
0.00262448
0.00189494
0.00139522
0.00125246
0.00223985
0.00137809
0.0033036
0.0110652
0.00552208
0.00268873
0.00348464
0.00438768
0.0045135
0.0042643
0.00374518
0.00321902
0.00333881
0.00381625
0.00454564
0.0054909
0.00657486
0.00765652
0.00857937
0.00922094
0.00951291
0.00947583
0.00920594
0.00880715
0.00837775
0.00799664
0.00770273
0.00749271
0.00732882
0.00715041
0.00690185
0.00655403
0.00609352
0.00551779
0.00483249
0.00405745
0.00324976
0.00243077
0.00169188
0.00114545
0.00327748
0.00182336
0.00339332
0.0104828
0.00683786
0.00347754
0.00236195
0.00289553
0.00338926
0.00343077
0.00302966
0.00294479
0.00325094
0.00381248
0.00460162
0.00560476
0.00674133
0.00785622
0.00877513
0.0093662
0.00957387
0.00943141
0.00903957
0.00852529
0.0080147
0.00760708
0.00734829
0.00722135
0.00716388
0.00709539
0.00695236
0.00670094
0.0063279
0.00583207
0.00521987
0.004507
0.00372217
0.0028364
0.00161723
0.00147984
0.00516543
0.00207269
0.00332457
0.00845686
0.00706647
0.00477627
0.00315259
0.0024403
0.00231171
0.00242122
0.00262477
0.00294899
0.00340891
0.00404116
0.00490024
0.005983
0.00718231
0.00831289
0.00918268
0.0096604
0.00970893
0.0093862
0.00881938
0.00816718
0.0075847
0.00718529
0.00700225
0.00698127
0.00702148
0.00702103
0.00692849
0.00672495
0.00640431
0.00596647
0.00541488
0.00475334
0.00396352
0.00283251
0.00121729
0.0027989
0.00481022
0.0021028
0.00311422
0.00723052
0.00683518
0.00546837
0.00420635
0.00338506
0.00297908
0.00288736
0.00305565
0.00336543
0.00381518
0.00448298
0.00543293
0.00662165
0.007883
0.00898911
0.00973645
0.010011
0.00981092
0.00923564
0.00845679
0.00767715
0.00708388
0.00678562
0.00675165
0.00685087
0.00695084
0.0069527
0.00685502
0.0066581
0.00635847
0.00595209
0.00543199
0.00477543
0.00389712
0.00258269
0.00132736
0.00295818
0.00527566
0.00212185
0.0028359
0.00652139
0.00659595
0.00579106
0.00492437
0.00427239
0.00388859
0.00375102
0.00378551
0.0039723
0.00438499
0.00513169
0.00623171
0.0075502
0.0088389
0.00983212
0.0103375
0.0102861
0.00973666
0.00885
0.0078643
0.00703962
0.00657047
0.00647705
0.00656258
0.00669608
0.00678246
0.00675747
0.00664336
0.00644367
0.00615283
0.00575625
0.00521892
0.00446391
0.00335032
0.00204903
0.00156001
0.00319172
0.00542653
0.00224448
0.0025865
0.00583662
0.0063014
0.00591927
0.00536209
0.0048945
0.00458358
0.00443154
0.00438576
0.00454408
0.00506773
0.0060448
0.00737814
0.00880704
0.0100111
0.0107252
0.0108143
0.0102925
0.00930985
0.00811036
0.00702569
0.00632624
0.00601858
0.00598863
0.00609013
0.00621684
0.00629105
0.00626362
0.00614481
0.00593979
0.00563916
0.00520899
0.00455414
0.00351712
0.00223517
0.00158834
0.00195199
0.00370383
0.00553029
0.00228445
0.00259505
0.00579412
0.00643954
0.00599234
0.00554099
0.00517155
0.00490507
0.0047318
0.00472212
0.00510675
0.00603185
0.00741867
0.00898494
0.0103655
0.0112381
0.0114158
0.0108842
0.00977381
0.00836789
0.00700397
0.0060109
0.00542662
0.00516421
0.00512312
0.00520368
0.00531197
0.00537245
0.00533977
0.00520346
0.00497524
0.00464114
0.0041406
0.00334292
0.00228047
0.00159371
0.00172151
0.00249187
0.00388339
0.00523242
0.00214014
0.00234216
0.00243614
0.00359172
0.00421823
0.00441113
0.0044131
0.0043693
0.00444755
0.0049823
0.00613058
0.00775396
0.00951198
0.0110175
0.0119445
0.0121013
0.0114555
0.0101704
0.00849908
0.00690373
0.00565152
0.00481482
0.00434746
0.00415176
0.00411455
0.00414598
0.00417638
0.00415448
0.00405647
0.00386356
0.00360499
0.00328608
0.00288257
0.00235336
0.00180888
0.0016246
0.00201741
0.00286535
0.00387991
0.00442395
0.00201702
0.000806368
0.00146222
0.00225665
0.00289767
0.00363953
0.0048919
0.00673813
0.00879631
0.0106805
0.0120967
0.0128387
0.0127684
0.0118883
0.0102993
0.00841166
0.0066278
0.00521587
0.00428043
0.00377952
0.00355021
0.0034512
0.00340042
0.00334964
0.0032667
0.00313629
0.00296482
0.00277525
0.00258687
0.00241737
0.00226139
0.00210314
0.00195908
0.00196128
0.00232423
0.00310678
0.00411082
0.00504894
0.00201024
0.00149736
0.00207505
0.00302921
0.00473441
0.00705033
0.00937876
0.0111903
0.0125105
0.0133235
0.0135662
0.0131271
0.011894
0.0100588
0.00798103
0.00607706
0.00466133
0.00384294
0.00346375
0.00330708
0.00324214
0.00320691
0.00316892
0.00310956
0.00302276
0.00291664
0.00280936
0.00271822
0.00265069
0.00260653
0.00257929
0.00256631
0.00258247
0.00267833
0.00296539
0.00361524
0.00485048
0.00555229
0.0021872
0.00275708
0.00668113
0.0061401
0.00547957
0.00696533
0.00929808
0.0112742
0.012619
0.0133428
0.0135403
0.013294
0.012552
0.0112571
0.00944467
0.00737584
0.00551765
0.00427966
0.0036685
0.00342964
0.00335826
0.00335413
0.00336958
0.00337831
0.00336648
0.0033318
0.00328195
0.00322969
0.00318643
0.00315878
0.00314943
0.00315979
0.00319569
0.00326874
0.00339496
0.00361296
0.00399702
0.00468953
0.00621055
0.00632163
0.00226828
0.00263862
0.00509721
0.0065678
0.00839363
0.00932553
0.0102932
0.0108626
0.0110089
0.0108105
0.0103224
0.00956046
0.00852
0.00723027
0.00583927
0.00460019
0.0037575
0.00331025
0.00312081
0.00307478
0.0031064
0.00317534
0.0032524
0.00331675
0.00335752
0.00337436
0.00337446
0.0033669
0.00335828
0.00335299
0.00335777
0.00338662
0.00346206
0.00361184
0.00385899
0.00422762
0.00471878
0.00538532
0.00654189
0.00668722
0.00233903
0.00247393
0.0021204
0.00211033
0.00217269
0.00222482
0.00216129
0.00203562
0.00188843
0.00174014
0.00159731
0.00146051
0.00133118
0.0012165
0.00112912
0.00107941
0.00105858
0.00105647
0.0010649
0.00107858
0.00109441
0.00111057
0.00112616
0.00114098
0.00115546
0.00117053
0.00118747
0.00120792
0.00123387
0.00126799
0.00131359
0.00137408
0.00145153
0.00154529
0.00165215
0.00176891
0.00189594
0.00202954
0.00216964
0.00230647
0.00217159
)
;

boundaryField
{
    floor
    {
        type            nutkWallFunction;
        Cmu             0.09;
        kappa           0.41;
        E               9.8;
        value           nonuniform List<scalar> 
36
(
0.000160542
7.63666e-05
0.000109504
0.000110365
0.000107728
0.000103309
9.73774e-05
9.14278e-05
8.59061e-05
8.08898e-05
7.63586e-05
7.22931e-05
6.86182e-05
6.52505e-05
6.20891e-05
5.89946e-05
5.57389e-05
5.30205e-05
4.74865e-05
4.74864e-05
6.15157e-05
7.0458e-05
7.7818e-05
9.30557e-05
0.00012344
0.000117926
0.000160542
0.000174968
0.000167224
0.000160412
7.63666e-05
0.000160412
0.000136048
0.000194654
0.000169887
0.000193914
)
;
    }
    ceiling
    {
        type            nutkWallFunction;
        Cmu             0.09;
        kappa           0.41;
        E               9.8;
        value           nonuniform List<scalar> 
43
(
0.000284345
0.000246404
0.000245316
0.000252062
0.00025769
0.000250855
0.000237252
0.000221198
0.000204884
0.000189029
0.000173698
0.000159057
0.000145937
0.000135836
0.00013004
0.000127598
0.000127344
0.000128325
0.000129924
0.000131774
0.000133662
0.00013548
0.000137207
0.000138888
0.000140631
0.000142583
0.000144928
0.000147891
0.000151768
0.000156929
0.000163751
0.00017246
0.00018297
0.000194902
0.000207866
0.000221861
0.000236502
0.000251753
0.000266557
0.000251978
0.000270473
0.000280517
0.000177609
)
;
    }
    sWall
    {
        type            nutkWallFunction;
        Cmu             0.09;
        kappa           0.41;
        E               9.8;
        value           nonuniform List<scalar> 9(0.000373881 0.000352059 0.000322953 0.00029662 0.000297522 0.000270563 0.000314347 0.000301876 0.000284446);
    }
    nWall
    {
        type            nutkWallFunction;
        Cmu             0.09;
        kappa           0.41;
        E               9.8;
        value           nonuniform List<scalar> 
14
(
0.000117934
0.000140023
0.000164367
0.000244612
0.000246732
0.000260001
0.000264015
0.000248376
0.000235062
0.000234679
0.000253736
0.000262427
0.000269993
0.000252016
)
;
    }
    sideWalls
    {
        type            empty;
    }
    glass1
    {
        type            nutkWallFunction;
        Cmu             0.09;
        kappa           0.41;
        E               9.8;
        value           nonuniform List<scalar> 9(0.000108248 0.000156882 0.000196737 0.00023435 0.000270793 0.000306144 0.000341763 0.000372085 0.000381376);
    }
    glass2
    {
        type            nutkWallFunction;
        Cmu             0.09;
        kappa           0.41;
        E               9.8;
        value           nonuniform List<scalar> 2(0.000214224 0.000241437);
    }
    sun
    {
        type            nutkWallFunction;
        Cmu             0.09;
        kappa           0.41;
        E               9.8;
        value           nonuniform List<scalar> 
14
(
0.000108207
0.000115183
0.000114773
0.00011964
0.00012408
0.000128095
0.000131819
0.000135397
0.000138987
0.00014279
0.000146403
0.000149825
0.000153185
0.00015679
)
;
    }
    Table_master
    {
        type            nutkWallFunction;
        Cmu             0.09;
        kappa           0.41;
        E               9.8;
        value           nonuniform List<scalar> 9(0.000139266 0.00012163 0.000107821 9.68741e-05 8.80614e-05 8.0874e-05 7.49565e-05 7.01023e-05 6.62897e-05);
    }
    Table_slave
    {
        type            nutkWallFunction;
        Cmu             0.09;
        kappa           0.41;
        E               9.8;
        value           nonuniform List<scalar> 9(0.000157741 0.000144056 0.000133356 0.00012438 0.000116673 0.000109703 0.000103085 9.64626e-05 8.92476e-05);
    }
    inlet
    {
        type            calculated;
        value           uniform 0.000167705;
    }
    outlet
    {
        type            calculated;
        value           nonuniform List<scalar> 2(0.00275708 0.00668113);
    }
}


// ************************************************************************* //
