/*--------------------------------*- C++ -*----------------------------------*\
  =========                 |
  \\      /  F ield         | OpenFOAM: The Open Source CFD Toolbox
   \\    /   O peration     | Website:  https://openfoam.org
    \\  /    A nd           | Version:  6
     \\/     M anipulation  |
\*---------------------------------------------------------------------------*/
FoamFile
{
    version     2.0;
    format      ascii;
    class       volScalarField;
    location    "1800";
    object      alphat;
}
// * * * * * * * * * * * * * * * * * * * * * * * * * * * * * * * * * * * * * //

dimensions      [1 -1 -1 0 0 0 0];

internalField   nonuniform List<scalar> 
778
(
0.000982123
0.00104103
0.00144036
0.00103907
0.00256665
0.00183348
0.00108216
0.00215374
0.00360202
0.00222076
0.0011206
0.00242917
0.00250032
0.00497787
0.00260988
0.00115478
0.00260925
0.00347947
0.00238116
0.00678341
0.00299781
0.00118591
0.00280298
0.00380737
0.00395087
0.002416
0.00886262
0.00339696
0.00121527
0.00299524
0.00410042
0.00442915
0.00382529
0.0029332
0.010825
0.00375356
0.0012442
0.00317028
0.00436768
0.00470419
0.00458819
0.00326027
0.00410092
0.0123451
0.00386885
0.00127423
0.00330897
0.00459961
0.00490548
0.00480618
0.00445837
0.0026545
0.00586989
0.0119009
0.00380785
0.00130438
0.00338919
0.00478937
0.00504199
0.00488001
0.00468294
0.00409903
0.00255378
0.00756738
0.00965657
0.00358604
0.00133439
0.00342704
0.00492754
0.00512497
0.00485612
0.00464483
0.00449798
0.00332205
0.00356472
0.0079535
0.00826727
0.00327889
0.00136601
0.00339785
0.00503454
0.0051717
0.00476624
0.00447315
0.00443164
0.00411045
0.00222777
0.00519146
0.00774161
0.007438
0.00299278
0.00140234
0.00325548
0.0051502
0.00522673
0.00466353
0.00421835
0.00418814
0.00420286
0.00272925
0.00325583
0.00608296
0.00748303
0.00663711
0.00299226
0.00144285
0.00291106
0.00526813
0.00537315
0.00462893
0.00397539
0.00382451
0.00402563
0.0032292
0.0024001
0.0045662
0.0065078
0.00714515
0.00659634
0.00270337
0.00227432
0.00535496
0.00563832
0.00474789
0.00388044
0.00344661
0.00367064
0.0033209
0.00221288
0.00357747
0.00546567
0.006679
0.00725174
0.00281121
0.00157679
0.00532703
0.0060236
0.00505114
0.00399812
0.00332686
0.00307125
0.00303036
0.00230603
0.00307331
0.00467713
0.00601037
0.0067062
0.00278275
0.00153616
0.0049484
0.00646249
0.00555215
0.00432141
0.00350182
0.00304516
0.00281397
0.00251003
0.00293043
0.00420031
0.00544338
0.00616114
0.00346486
0.000230358
0.00150693
0.00375563
0.00672877
0.00623174
0.00485081
0.00386974
0.00332386
0.00300678
0.00282562
0.0030858
0.00400516
0.00505457
0.00570695
0.00386652
0.000119364
0.00323866
0.00179379
0.00636394
0.00699348
0.00559293
0.00442192
0.00374326
0.00336426
0.00319823
0.00335831
0.00399881
0.00483665
0.00535906
0.003998
0.000152952
0.000485961
0.00294013
0.00478473
0.00770696
0.00649237
0.00519466
0.00430769
0.00380851
0.00358181
0.00363968
0.00405278
0.00466637
0.00506304
0.00394813
0.00028057
0.000314557
0.00107412
0.00460578
0.00525173
0.00185079
0.00824213
0.00747884
0.00613602
0.0050747
0.00439409
0.00402482
0.00393314
0.00412606
0.00448994
0.00466775
0.0036579
0.000386706
0.000457482
0.00254523
0.00633481
0.00284243
0.00455013
0.00216211
0.00489862
0.00808988
0.00841298
0.00715665
0.00603702
0.00519736
0.00464448
0.00435474
0.0043073
0.00440244
0.0043364
0.00335104
0.000605369
0.0015614
0.00631706
0.00767889
0.00222061
0.00277259
0.00224669
0.00165833
0.00684637
0.0084887
0.00895611
0.00810315
0.00708048
0.00620519
0.00552195
0.00504776
0.00477196
0.00461943
0.004362
0.00349465
0.00160852
0.004567
0.00956797
0.00942447
0.00228582
0.00271421
0.00136815
0.00392863
0.00767075
0.00880724
0.00914576
0.00876531
0.00802454
0.00727958
0.00660764
0.00605335
0.00563749
0.00532964
0.00500356
0.00442099
0.00373429
0.00798696
0.0117352
0.010569
0.00227301
0.00101324
0.00248284
0.00537068
0.00778719
0.00890153
0.00918855
0.00905569
0.00868734
0.00821512
0.00771742
0.00724379
0.00683983
0.00652644
0.00628469
0.00610761
0.00650248
0.0105962
0.0129475
0.0110645
0.00218892
0.00104808
0.00341424
0.00590698
0.00663164
0.00876984
0.00909023
0.00908
0.00898422
0.00883048
0.0086165
0.00836722
0.00813134
0.00796417
0.00792679
0.00815203
0.00915485
0.0122059
0.0134549
0.0110637
0.00206948
0.00105537
0.00388436
0.00525724
0.00153638
0.0082765
0.00887209
0.00891091
0.00895791
0.00904673
0.00912324
0.00916245
0.00918902
0.00926292
0.00947448
0.00998258
0.0111166
0.0129999
0.0134191
0.0107049
0.00194478
0.00103788
0.00384394
0.00136217
0.00139949
0.00671187
0.00854766
0.00862786
0.0087005
0.00890228
0.00917675
0.00946455
0.0097519
0.0100724
0.0104975
0.0111311
0.0120583
0.0130712
0.0128472
0.0100633
0.00182751
0.00100208
0.00301708
0.00118434
0.00129481
0.00585039
0.00804654
0.00830783
0.00832929
0.00851223
0.0088431
0.00925609
0.00970985
0.0101973
0.01074
0.0113534
0.0119519
0.0122402
0.011739
0.00917131
0.00171719
0.000949845
0.0025799
0.00104808
0.00120754
0.00524876
0.00755291
0.0079924
0.00795789
0.00802811
0.0082773
0.00866102
0.00912687
0.00964346
0.0101729
0.0106555
0.0109129
0.0107209
0.0101472
0.00807991
0.00161152
0.000896121
0.00227957
0.000942034
0.00113343
0.00477104
0.00710191
0.00771335
0.0076621
0.00759357
0.00767487
0.00789781
0.00822477
0.00860602
0.00899774
0.00926588
0.00927046
0.00886642
0.00830485
0.00691398
0.00151294
0.000845797
0.00205189
0.000858055
0.00106703
0.00428137
0.00667514
0.00746816
0.00746543
0.00730095
0.00721101
0.00722511
0.00731729
0.00746471
0.00760208
0.00766253
0.00751685
0.00704492
0.00656368
0.00585452
0.00142878
0.000799904
0.00186504
0.000790483
0.00100445
0.00379524
0.00618713
0.00722308
0.00734316
0.00716632
0.00697949
0.00684401
0.00673415
0.00663681
0.0064746
0.00628795
0.00600561
0.00557
0.00530203
0.00500897
0.00136795
0.000758712
0.00170588
0.000735499
0.000942184
0.00331551
0.00564174
0.00690911
0.00723914
0.00713985
0.00695773
0.0067921
0.00661068
0.00625003
0.00576853
0.005301
0.00491644
0.00462245
0.00457977
0.00442379
0.00133625
0.000721569
0.00156561
0.000690946
0.000874664
0.00283623
0.0050381
0.00650086
0.00708129
0.00714026
0.0070411
0.0069326
0.00673245
0.00620165
0.00541982
0.00470084
0.00427825
0.00411998
0.00421271
0.00405804
0.0013227
0.000687854
0.00143488
0.000656599
0.000819953
0.00234506
0.00437332
0.00598165
0.00682074
0.00708552
0.00710987
0.00709206
0.0069134
0.00632149
0.00533457
0.00441388
0.00395011
0.00386639
0.00403348
0.00385281
0.00132281
0.000656863
0.00130615
0.000727752
0.000853168
0.00181728
0.00364574
0.0053436
0.00642727
0.00692213
0.00708945
0.00714499
0.00704018
0.006483
0.00541629
0.00432619
0.00378168
0.00373047
0.00395604
0.00376891
0.00133333
0.000627694
0.00119047
0.000860432
0.0014572
0.0014041
0.00286445
0.00458849
0.00588741
0.00662117
0.00695432
0.00708486
0.00703701
0.00659175
0.00555966
0.00434794
0.0036878
0.00365009
0.003938
0.00377913
0.00135098
0.000599093
0.00109133
0.0013512
0.000767857
0.00143209
0.00215354
0.00374031
0.00520224
0.00617034
0.00669104
0.00692513
0.00693455
0.00658282
0.00566487
0.00440475
0.00362243
0.00359253
0.00394966
0.00385628
0.00137261
0.000568959
0.00121926
0.00069817
0.00113285
0.00165684
0.00290054
0.00439534
0.00557018
0.00629109
0.00665961
0.00674953
0.00647398
0.00565849
0.00442254
0.00354809
0.00353308
0.00396385
0.00396885
0.00139561
0.000542962
0.000615853
0.000909859
0.00130132
0.00212832
0.00353919
0.00483835
0.00575228
0.00627685
0.00647438
0.00627779
0.0055383
0.00434283
0.00343011
0.00345028
0.00395786
0.00408365
0.00141821
0.000491416
0.00120143
0.00146755
0.00159482
0.00267264
0.00401711
0.00507988
0.00576606
0.00609238
0.00598658
0.00531775
0.00415425
0.00325408
0.00333314
0.00392034
0.00417339
0.00143954
0.00114535
0.00256235
0.00146059
0.0019072
0.00309973
0.00426693
0.00510343
0.00557287
0.0055712
0.00499387
0.00388414
0.00303557
0.00319217
0.00385734
0.00422569
0.00145966
0.00136433
0.00260299
0.00131257
0.00186439
0.00314202
0.00418325
0.00481027
0.00493786
0.0045345
0.00355606
0.00281463
0.00305795
0.0037897
0.00424724
0.00147941
0.00161013
0.00383565
0.00161788
0.00147891
0.00276164
0.00354544
0.00383374
0.00382992
0.00318244
0.00262539
0.00296052
0.0037389
0.0042579
0.00150014
0.00212456
0.00608519
0.00275898
0.00155844
0.00201526
0.00230481
0.00275466
0.00274559
0.00248342
0.00291426
0.00371917
0.00427742
0.00152335
0.00238467
0.00599673
0.00314903
0.00185737
0.0016955
0.00182407
0.00223765
0.00238329
0.00291817
0.00373314
0.00431401
0.00155039
0.00244778
0.00658876
0.00375492
0.00241234
0.00188916
0.00188225
0.00231733
0.00296434
0.00377985
0.00436886
0.00158247
0.0024792
0.00664142
0.00413899
0.00287957
0.00212521
0.00232927
0.00305463
0.00386151
0.00444137
0.00162131
0.0025298
0.0061793
0.00427326
0.00310814
0.00260162
0.00322168
0.00399375
0.00453671
0.00166985
0.00241561
0.00525831
0.00445283
0.00343027
0.00355614
0.00421793
0.00467282
0.00173288
0.00231266
0.0056898
0.0049725
0.00427282
0.00461529
0.00487919
0.00181669
0.00230693
0.00603207
0.00603747
0.00535846
0.00518507
0.00192701
0.0024912
0.00648197
0.00720152
0.00564898
0.00206599
0.00255598
0.00732892
0.00672891
0.00223099
0.00260738
0.00770797
0.00241539
0.00261148
0.00260319
0.00242179
)
;

boundaryField
{
    floor
    {
        type            compressible::alphatWallFunction;
        Prt             0.85;
        value           nonuniform List<scalar> 
36
(
0.000203142
0.000144014
0.000148901
0.000149921
0.000147471
0.000142442
0.000135068
0.000127433
0.000120232
0.000113621
0.000107649
0.000102231
9.72835e-05
9.27102e-05
8.83819e-05
8.41139e-05
7.959e-05
7.56636e-05
6.7809e-05
6.78082e-05
8.66185e-05
9.88007e-05
0.000108978
0.00012939
0.000170188
0.000162449
0.00020314
0.000221135
0.000215693
0.000211767
0.000144012
0.000211765
0.000193008
0.000249931
0.000231991
0.00025743
)
;
    }
    ceiling
    {
        type            compressible::alphatWallFunction;
        Prt             0.85;
        value           nonuniform List<scalar> 
43
(
0.000368514
0.000308981
0.000298081
0.000305632
0.000314025
0.000312398
0.000301587
0.000286141
0.000269908
0.000254542
0.000239993
0.000225968
0.000212798
0.000201477
0.000193235
0.000188915
0.000187059
0.000187061
0.000188485
0.000190885
0.00019383
0.000196963
0.000200038
0.000202938
0.000205669
0.000208342
0.000211138
0.00021426
0.000217884
0.000222169
0.000227329
0.000233741
0.000242018
0.000252965
0.000267314
0.000285322
0.000306593
0.00033021
0.000354094
0.00033104
0.000367441
0.000381001
0.0004334
)
;
    }
    sWall
    {
        type            compressible::alphatWallFunction;
        Prt             0.85;
        value           nonuniform List<scalar> 9(0.000502529 0.000475448 0.000437666 0.000402148 0.000402074 0.000365863 0.000382756 0.000374044 0.000366789);
    }
    nWall
    {
        type            compressible::alphatWallFunction;
        Prt             0.85;
        value           nonuniform List<scalar> 
14
(
0.000161994
0.00019202
0.000225077
0.00033412
0.000338076
0.000344069
0.000329638
0.000316634
0.000316252
0.000339729
0.00034784
0.000354096
0.000354319
0.000330343
)
;
    }
    sideWalls
    {
        type            empty;
    }
    glass1
    {
        type            compressible::alphatWallFunction;
        Prt             0.85;
        value           nonuniform List<scalar> 9(0.000135766 0.000197911 0.000249613 0.000299484 0.000348747 0.00039716 0.000446341 0.000489823 0.00050391);
    }
    glass2
    {
        type            compressible::alphatWallFunction;
        Prt             0.85;
        value           nonuniform List<scalar> 2(0.000290272 0.000323608);
    }
    sun
    {
        type            compressible::alphatWallFunction;
        Prt             0.85;
        value           nonuniform List<scalar> 
14
(
0.000139675
0.000147932
0.000147655
0.00015368
0.000159033
0.000163773
0.000168077
0.000172125
0.000176102
0.000180219
0.000184342
0.000188436
0.000192737
0.000197665
)
;
    }
    Table_master
    {
        type            compressible::alphatWallFunction;
        Prt             0.85;
        value           nonuniform List<scalar> 9(0.000192484 0.000168121 0.000149171 0.000134226 0.00012225 0.000112514 0.000104517 9.79848e-05 9.29141e-05);
    }
    Table_slave
    {
        type            compressible::alphatWallFunction;
        Prt             0.85;
        value           nonuniform List<scalar> 9(0.000216007 0.000197554 0.000183305 0.000171327 0.000161077 0.000151828 0.000143049 0.000134251 0.000124632);
    }
    inlet
    {
        type            fixedValue;
        value           uniform 1.94e-05;
    }
    outlet
    {
        type            zeroGradient;
    }
}


// ************************************************************************* //
