/*--------------------------------*- C++ -*----------------------------------*\
  =========                 |
  \\      /  F ield         | OpenFOAM: The Open Source CFD Toolbox
   \\    /   O peration     | Website:  https://openfoam.org
    \\  /    A nd           | Version:  6
     \\/     M anipulation  |
\*---------------------------------------------------------------------------*/
FoamFile
{
    version     2.0;
    format      ascii;
    class       volScalarField;
    location    "1800";
    object      T;
}
// * * * * * * * * * * * * * * * * * * * * * * * * * * * * * * * * * * * * * //

dimensions      [0 0 0 1 0 0 0];

internalField   nonuniform List<scalar> 
662
(
302.489
302.2
302.184
302.178
302.172
302.166
302.159
302.151
302.14
302.122
302.099
302.075
302.062
302.065
302.101
302.289
302.261
302.249
302.254
302.263
302.271
302.279
302.287
302.295
302.304
302.312
302.32
302.329
302.337
302.346
302.356
302.369
302.4
302.704
302.261
302.242
302.25
302.257
302.261
302.26
302.255
302.237
302.2
302.142
302.083
302.047
302.043
302.057
302.069
302.082
302.108
302.297
302.232
302.225
302.232
302.244
302.25
302.255
302.26
302.264
302.269
302.274
302.279
302.285
302.292
302.301
302.314
302.332
302.382
302.929
302.333
302.302
302.327
302.357
302.382
302.4
302.406
302.388
302.324
302.211
302.098
302.037
302.032
302.048
302.062
302.073
302.098
302.241
302.213
302.212
302.229
302.25
302.253
302.255
302.259
302.262
302.266
302.27
302.275
302.279
302.284
302.294
302.305
302.323
302.377
303.151
302.419
302.355
302.39
302.442
302.498
302.55
302.583
302.574
302.479
302.287
302.108
302.023
302.023
302.047
302.068
302.079
302.092
302.104
302.126
302.16
302.201
302.244
302.28
302.31
302.331
302.349
302.364
302.377
302.388
302.397
302.404
302.409
302.382
302.355
302.343
302.381
303.355
302.535
302.42
302.437
302.492
302.561
302.641
302.716
302.735
302.612
302.333
302.102
302.005
302.013
302.054
302.088
302.106
302.117
302.137
302.169
302.211
302.259
302.306
302.348
302.384
302.411
302.432
302.449
302.462
302.468
302.47
302.467
302.458
302.434
302.399
302.37
302.382
302.49
302.579
302.578
303.52
302.751
302.585
302.541
302.558
302.606
302.679
302.78
302.809
302.647
302.332
302.063
301.968
302.004
302.075
302.132
302.165
302.184
302.213
302.252
302.298
302.346
302.392
302.432
302.465
302.49
302.509
302.523
302.532
302.534
302.529
302.518
302.501
302.476
302.441
302.404
302.395
302.445
302.48
302.526
304.779
303.476
303.085
302.881
302.78
302.749
302.779
302.862
302.889
302.702
302.316
301.982
301.9
302.01
302.127
302.211
302.259
302.289
302.321
302.36
302.403
302.447
302.486
302.52
302.546
302.565
302.579
302.587
302.591
302.589
302.579
302.562
302.54
302.514
302.481
302.446
302.426
302.439
302.457
302.491
307.098
304.952
304.212
303.793
303.482
303.274
303.163
303.081
302.853
302.406
301.946
301.743
301.897
302.087
302.24
302.334
302.381
302.409
302.439
302.474
302.51
302.545
302.574
302.598
302.615
302.627
302.633
302.636
302.634
302.628
302.619
302.603
302.581
302.556
302.531
302.505
302.493
302.501
302.526
302.695
293.618
299.295
301.384
302.152
302.36
302.274
301.902
301.512
301.411
301.608
302.05
302.278
302.409
302.468
302.5
302.523
302.548
302.576
302.602
302.626
302.645
302.659
302.667
302.671
302.672
302.67
302.666
302.661
302.657
302.654
302.654
302.659
302.673
302.698
302.735
302.776
302.81
302.89
295.405
295.136
297.298
298.976
299.842
300.151
300.434
300.878
301.407
301.893
302.367
302.485
302.546
302.579
302.6
302.619
302.638
302.657
302.674
302.687
302.696
302.702
302.705
302.705
302.705
302.703
302.702
302.702
302.702
302.702
302.705
302.712
302.725
302.746
302.773
302.801
302.829
302.887
299.968
297.852
295.654
295.59
297.131
298.557
299.538
300.287
300.982
301.598
302.07
302.375
302.576
302.622
302.649
302.666
302.68
302.693
302.704
302.715
302.723
302.728
302.731
302.732
302.732
302.732
302.731
302.73
302.73
302.729
302.729
302.73
302.732
302.737
302.746
302.759
302.777
302.8
302.832
302.862
300.245
299.083
298.557
298.587
299.335
300.167
300.907
301.546
302.041
302.366
302.559
302.66
302.715
302.729
302.739
302.748
302.755
302.76
302.765
302.768
302.77
302.771
302.77
302.769
302.767
302.765
302.763
302.761
302.759
302.757
302.755
302.754
302.754
302.755
302.758
302.765
302.777
302.788
302.854
302.965
303.728
303.271
302.964
302.818
302.751
302.753
302.816
302.893
302.827
302.52
302.125
301.908
305.761
304.499
303.986
303.624
303.365
303.208
303.13
302.995
302.65
302.157
301.804
301.759
297.382
300.584
301.869
302.302
302.346
302.114
301.686
301.417
301.482
301.761
294.334
296.203
298.243
299.499
300.041
300.274
300.637
301.139
301.664
302.082
299.244
296.566
295.106
296.326
297.887
299.1
299.923
300.644
301.298
301.854
302.244
302.469
299.433
298.776
298.462
298.921
299.759
300.549
301.241
301.815
302.223
302.476
302.618
302.689
303.941
303.95
303.573
303.303
303.107
302.992
302.959
302.98
302.913
302.61
302.167
301.868
307.167
304.996
304.419
303.896
303.542
303.309
303.152
302.971
302.569
302.038
301.671
301.64
295.253
296.226
298.859
300.384
301.021
301.118
301.013
301.026
301.291
301.692
293.969
295.043
296.821
298.374
299.333
299.919
300.496
301.133
301.711
302.154
299.989
298.282
297.003
296.94
298.099
299.241
300.143
300.909
301.559
302.036
302.352
302.529
300.037
300.053
300.135
300.294
300.743
301.279
301.778
302.182
302.453
302.609
302.686
302.713
304.238
303.744
303.427
303.195
303.038
302.964
302.968
302.97
302.792
302.389
301.984
301.826
305.79
304.768
304.131
303.701
303.413
303.224
303.081
302.798
302.304
301.816
301.615
301.723
294.766
297.66
299.758
300.79
301.113
301.072
300.988
301.13
301.486
301.885
294.411
295.899
297.669
298.922
299.648
300.196
300.814
301.435
301.958
302.293
299.064
297.559
296.691
297.481
298.697
299.718
300.537
301.253
301.82
302.212
302.456
302.572
300.032
300.088
300.196
300.493
301.011
301.537
301.995
302.335
302.543
302.655
302.705
302.716
)
;

boundaryField
{
    floor
    {
        type            wallHeatTransfer;
        Tinf            uniform 305.2;
        alphaWall       uniform 0.24;
        value           nonuniform List<scalar> 
36
(
302.415
302.808
302.731
302.68
302.67
302.682
302.71
302.743
302.777
302.809
302.839
302.869
302.898
302.925
302.952
302.979
303.008
303.033
303.092
303.092
302.977
302.914
302.87
302.875
302.937
302.916
302.415
302.34
302.395
302.472
302.808
302.472
302.819
302.413
302.635
302.384
)
;
    }
    ceiling
    {
        type            wallHeatTransfer;
        Tinf            uniform 303.2;
        alphaWall       uniform 0.24;
        value           nonuniform List<scalar> 
58
(
300.237
300.279
300.375
300.651
301.143
301.644
302.08
302.403
302.602
302.711
302.76
302.77
302.773
302.786
302.797
302.805
302.812
302.819
302.824
302.829
302.831
302.832
302.832
302.831
302.829
302.826
302.823
302.82
302.816
302.813
302.809
302.806
302.804
302.802
302.803
302.807
302.817
302.831
302.892
302.988
305.647
304.688
294.891
300.446
300.252
300.32
300.464
300.889
301.398
301.873
302.258
302.517
302.666
302.742
302.768
306.868
304.903
296.044
)
;
    }
    sWall
    {
        type            wallHeatTransfer;
        Tinf            uniform 315.2;
        alphaWall       uniform 0.36;
        value           nonuniform List<scalar> 4(301.202 301.335 301.192 301.726);
    }
    nWall
    {
        type            wallHeatTransfer;
        Tinf            uniform 307.2;
        alphaWall       uniform 0.36;
        value           nonuniform List<scalar> 6(303.419 303.354 303.231 303.493 303.455 303.559);
    }
    sideWalls
    {
        type            empty;
    }
    glass1
    {
        type            wallHeatTransfer;
        Tinf            uniform 315.2;
        alphaWall       uniform 4.3;
        value           nonuniform List<scalar> 10(311.289 310.644 310.199 309.835 309.537 309.243 309.237 311.34 309.78 311.403);
    }
    glass2
    {
        type            wallHeatTransfer;
        Tinf            uniform 307.2;
        alphaWall       uniform 4.3;
        value           nonuniform List<scalar> 2(305.452 305.585);
    }
    sun
    {
        type            wallHeatTransfer;
        Tinf            uniform 305.2;
        alphaWall       uniform 0.24;
        value           nonuniform List<scalar> 
14
(
302.785
302.508
302.489
302.473
302.458
302.444
302.43
302.416
302.398
302.376
302.35
302.326
302.318
302.335
)
;
    }
    Table_master
    {
        type            zeroGradient;
    }
    Table_slave
    {
        type            zeroGradient;
    }
    inlet
    {
        type            fixedValue;
        value           uniform 293.15;
    }
    outlet
    {
        type            zeroGradient;
    }
}


// ************************************************************************* //
