/*--------------------------------*- C++ -*----------------------------------*\
  =========                 |
  \\      /  F ield         | OpenFOAM: The Open Source CFD Toolbox
   \\    /   O peration     | Website:  https://openfoam.org
    \\  /    A nd           | Version:  6
     \\/     M anipulation  |
\*---------------------------------------------------------------------------*/
FoamFile
{
    version     2.0;
    format      ascii;
    class       volScalarField;
    location    "1800";
    object      T;
}
// * * * * * * * * * * * * * * * * * * * * * * * * * * * * * * * * * * * * * //

dimensions      [0 0 0 1 0 0 0];

internalField   nonuniform List<scalar> 
778
(
302.599
302.277
302.262
302.257
302.253
302.249
302.245
302.241
302.237
302.233
302.227
302.221
302.212
302.203
302.194
302.161
302.13
302.121
302.118
302.119
302.121
302.125
302.129
302.133
302.137
302.141
302.145
302.149
302.154
302.158
302.164
302.171
302.2
302.814
302.306
302.274
302.273
302.274
302.275
302.275
302.273
302.27
302.266
302.259
302.246
302.228
302.205
302.178
302.159
302.146
302.141
302.1
302.087
302.082
302.08
302.08
302.081
302.082
302.083
302.085
302.086
302.087
302.089
302.091
302.094
302.1
302.11
302.125
302.176
303.032
302.353
302.299
302.305
302.316
302.326
302.334
302.34
302.343
302.341
302.334
302.317
302.29
302.252
302.208
302.169
302.137
302.115
302.082
302.072
302.069
302.068
302.068
302.068
302.069
302.069
302.069
302.07
302.07
302.07
302.071
302.073
302.077
302.086
302.102
302.164
303.241
302.413
302.329
302.34
302.361
302.382
302.401
302.418
302.43
302.435
302.429
302.409
302.37
302.315
302.251
302.191
302.141
302.104
302.086
302.071
302.065
302.063
302.062
302.062
302.061
302.061
302.06
302.059
302.059
302.058
302.057
302.056
302.055
302.061
302.07
302.088
302.155
303.441
302.487
302.36
302.372
302.403
302.435
302.467
302.497
302.521
302.536
302.535
302.512
302.462
302.385
302.297
302.214
302.147
302.101
302.075
302.064
302.06
302.059
302.059
302.06
302.06
302.06
302.06
302.06
302.059
302.058
302.057
302.056
302.054
302.055
302.061
302.077
302.131
302.142
302.152
302.246
303.629
302.572
302.396
302.399
302.436
302.477
302.52
302.562
302.6
302.627
302.635
302.613
302.551
302.452
302.335
302.23
302.148
302.096
302.068
302.057
302.055
302.056
302.058
302.06
302.061
302.062
302.061
302.061
302.06
302.059
302.057
302.056
302.054
302.053
302.056
302.067
302.101
302.112
302.125
302.256
303.79
302.665
302.444
302.423
302.459
302.503
302.55
302.599
302.646
302.686
302.708
302.691
302.619
302.499
302.356
302.233
302.143
302.086
302.059
302.049
302.05
302.054
302.059
302.062
302.064
302.064
302.064
302.063
302.061
302.06
302.058
302.056
302.054
302.052
302.053
302.059
302.079
302.091
302.107
302.237
303.941
302.808
302.539
302.456
302.476
302.516
302.56
302.606
302.653
302.707
302.748
302.733
302.649
302.512
302.358
302.223
302.126
302.069
302.044
302.041
302.047
302.055
302.062
302.067
302.069
302.068
302.067
302.065
302.063
302.06
302.058
302.055
302.053
302.051
302.051
302.054
302.066
302.077
302.115
302.413
304.148
303.26
302.869
302.608
302.52
302.531
302.566
302.605
302.656
302.723
302.769
302.75
302.651
302.495
302.328
302.187
302.092
302.042
302.028
302.033
302.047
302.06
302.069
302.074
302.074
302.073
302.07
302.067
302.063
302.06
302.057
302.054
302.051
302.049
302.048
302.05
302.059
302.087
302.163
302.558
304.133
303.564
303.19
302.884
302.701
302.629
302.617
302.639
302.701
302.775
302.807
302.757
302.622
302.44
302.261
302.124
302.042
302.01
302.012
302.03
302.052
302.07
302.08
302.083
302.081
302.076
302.071
302.067
302.062
302.058
302.055
302.052
302.049
302.047
302.046
302.049
302.076
302.251
302.361
302.564
304.136
303.699
303.382
303.117
302.93
302.825
302.782
302.785
302.832
302.873
302.852
302.737
302.547
302.336
302.156
302.038
301.984
301.979
302.003
302.037
302.067
302.086
302.093
302.092
302.085
302.078
302.071
302.065
302.06
302.055
302.052
302.049
302.047
302.045
302.045
302.051
302.135
302.323
302.438
302.58
304.168
303.785
303.519
303.303
303.143
303.043
302.994
302.988
302.999
302.969
302.85
302.641
302.392
302.169
302.014
301.938
301.928
301.961
302.011
302.058
302.091
302.107
302.107
302.099
302.088
302.077
302.069
302.062
302.057
302.053
302.049
302.047
302.045
302.044
302.045
302.056
302.144
302.336
302.466
302.602
304.232
303.903
303.658
303.471
303.335
303.244
303.193
303.168
303.106
302.951
302.696
302.396
302.125
301.938
301.851
301.846
301.897
301.971
302.043
302.096
302.124
302.129
302.12
302.105
302.091
302.079
302.069
302.062
302.056
302.052
302.049
302.047
302.045
302.046
302.05
302.065
302.132
302.308
302.431
302.563
304.166
303.915
303.705
303.561
303.443
303.351
303.276
303.18
302.956
302.619
302.25
301.942
301.75
301.682
301.712
301.803
301.915
302.022
302.102
302.148
302.159
302.15
302.133
302.116
302.1
302.087
302.076
302.068
302.062
302.057
302.054
302.052
302.053
302.059
302.074
302.099
302.153
302.287
302.392
302.515
304.306
304.112
303.642
303.323
303.125
302.971
302.804
302.517
302.091
301.695
301.435
301.338
301.378
301.507
301.677
301.852
302.003
302.116
302.178
302.196
302.19
302.175
302.156
302.139
302.124
302.11
302.099
302.089
302.081
302.076
302.073
302.074
302.083
302.103
302.137
302.176
302.222
302.31
302.39
302.511
294.664
296.515
298.274
299.235
299.634
299.797
299.997
300.27
300.595
300.935
301.264
301.563
301.811
302.012
302.149
302.218
302.242
302.241
302.228
302.213
302.198
302.185
302.173
302.163
302.154
302.144
302.133
302.127
302.123
302.127
302.143
302.177
302.227
302.283
302.34
302.399
302.453
302.556
294.932
295.792
296.731
297.625
298.393
299.069
299.713
300.301
300.807
301.229
301.582
301.875
302.07
302.199
302.269
302.297
302.299
302.291
302.28
302.27
302.263
302.258
302.255
302.253
302.25
302.243
302.231
302.218
302.209
302.207
302.218
302.248
302.299
302.365
302.436
302.503
302.55
302.609
299.694
298.62
297.249
296.735
297.504
298.498
299.381
300.103
300.679
301.117
301.474
301.764
301.991
302.161
302.27
302.331
302.356
302.36
302.355
302.348
302.343
302.341
302.343
302.348
302.354
302.36
302.363
302.36
302.35
302.333
302.316
302.304
302.302
302.315
302.346
302.392
302.447
302.504
302.558
302.638
300.041
299.909
299.32
298.791
299.206
299.923
300.582
301.108
301.505
301.797
302.012
302.171
302.285
302.359
302.399
302.415
302.417
302.414
302.41
302.407
302.409
302.414
302.423
302.435
302.447
302.458
302.464
302.464
302.456
302.441
302.423
302.406
302.396
302.394
302.404
302.426
302.456
302.491
302.535
302.595
300.766
300.747
300.798
300.884
301.037
301.388
301.722
301.982
302.168
302.297
302.384
302.44
302.473
302.49
302.495
302.495
302.491
302.488
302.487
302.488
302.494
302.503
302.515
302.529
302.541
302.55
302.554
302.553
302.546
302.536
302.524
302.514
302.508
302.508
302.514
302.527
302.546
302.569
302.59
302.633
)
;

boundaryField
{
    floor
    {
        type            wallHeatTransfer;
        Tinf            uniform 305.2;
        alphaWall       uniform 0.36;
        value           nonuniform List<scalar> 
36
(
302.589
302.711
302.664
302.653
302.658
302.672
302.696
302.725
302.753
302.782
302.81
302.837
302.863
302.889
302.915
302.941
302.971
302.998
303.068
303.068
302.934
302.864
302.813
302.721
302.628
302.72
302.589
302.533
302.533
302.54
302.711
302.54
302.543
302.462
302.464
302.431
)
;
    }
    ceiling
    {
        type            wallHeatTransfer;
        Tinf            uniform 303.2;
        alphaWall       uniform 0.36;
        value           nonuniform List<scalar> 
43
(
300.959
300.968
301.015
301.088
301.224
301.548
301.859
302.101
302.276
302.398
302.482
302.538
302.573
302.592
302.6
302.601
302.598
302.595
302.594
302.595
302.599
302.606
302.615
302.625
302.633
302.639
302.64
302.636
302.628
302.617
302.604
302.593
302.586
302.583
302.586
302.595
302.61
302.628
302.645
302.684
304.213
304.038
295.894
)
;
    }
    sWall
    {
        type            wallHeatTransfer;
        Tinf            uniform 315.2;
        alphaWall       uniform 0.54;
        value           nonuniform List<scalar> 9(305.151 305.209 305.319 305.462 305.399 305.624 301.338 301.704 302.429);
    }
    nWall
    {
        type            wallHeatTransfer;
        Tinf            uniform 308.2;
        alphaWall       uniform 0.54;
        value           nonuniform List<scalar> 
14
(
303.577
303.438
303.298
303.308
303.334
303.367
303.31
303.251
303.244
303.302
303.365
303.37
303.269
303.35
)
;
    }
    sideWalls
    {
        type            empty;
    }
    glass1
    {
        type            wallHeatTransfer;
        Tinf            uniform 315.2;
        alphaWall       uniform 4.3;
        value           nonuniform List<scalar> 9(311.698 310.866 310.342 309.944 309.63 309.38 309.161 309.013 309.064);
    }
    glass2
    {
        type            wallHeatTransfer;
        Tinf            uniform 308.2;
        alphaWall       uniform 4.3;
        value           nonuniform List<scalar> 2(305.776 305.67);
    }
    sun
    {
        type            wallHeatTransfer;
        Tinf            uniform 305.2;
        alphaWall       uniform 0.36;
        value           nonuniform List<scalar> 
14
(
303.055
302.768
302.758
302.74
302.724
302.71
302.697
302.684
302.672
302.66
302.647
302.634
302.62
302.604
)
;
    }
    Table_master
    {
        type            zeroGradient;
    }
    Table_slave
    {
        type            zeroGradient;
    }
    inlet
    {
        type            fixedValue;
        value           uniform 293.15;
    }
    outlet
    {
        type            zeroGradient;
    }
}


// ************************************************************************* //
