/*--------------------------------*- C++ -*----------------------------------*\
  =========                 |
  \\      /  F ield         | OpenFOAM: The Open Source CFD Toolbox
   \\    /   O peration     | Website:  https://openfoam.org
    \\  /    A nd           | Version:  6
     \\/     M anipulation  |
\*---------------------------------------------------------------------------*/
FoamFile
{
    version     2.0;
    format      ascii;
    class       volScalarField;
    location    "90";
    object      alphat;
}
// * * * * * * * * * * * * * * * * * * * * * * * * * * * * * * * * * * * * * //

dimensions      [1 -1 -1 0 0 0 0];

internalField   nonuniform List<scalar> 
458
(
0.00140119
0.00154797
0.00160825
0.00169507
0.00177666
0.00185699
0.00194209
0.00201894
0.00207744
0.00210675
0.00209728
0.00203815
0.00187234
0.00161654
0.00135002
0.000735751
0.000879315
0.00104114
0.00114245
0.00115163
0.00108775
0.00101114
0.000942105
0.000882664
0.000831633
0.000787763
0.000749669
0.000715826
0.000684912
0.000654857
0.000622391
0.000582337
0.000519676
0.00180086
0.00438606
0.00424358
0.00492802
0.00564983
0.00635197
0.00689473
0.0074148
0.00792392
0.0083711
0.00870683
0.00887632
0.00876628
0.00814441
0.00577939
0.00177612
0.00151856
0.00123386
0.000697589
0.00197629
0.00300868
0.00385437
0.00412249
0.00285931
0.0023853
0.00206884
0.00183384
0.00164996
0.00150195
0.00138464
0.00129947
0.00120574
0.00109524
0.000985537
0.000910328
0.00054225
0.00213223
0.00594867
0.00528531
0.00622751
0.00676511
0.00715923
0.00746196
0.00782054
0.00827712
0.00882221
0.00940987
0.00993342
0.0102184
0.010077
0.0092607
0.0072473
0.00537384
0.00153958
0.00103361
0.00215817
0.00346323
0.00467344
0.00495221
0.00144528
0.00126393
0.00110969
0.000981796
0.000874875
0.000783399
0.000703227
0.000633388
0.00058657
0.000676326
0.000791671
0.000935865
0.000547841
0.00245051
0.00739779
0.00532274
0.00644355
0.0067026
0.00674224
0.00683625
0.00707086
0.00749184
0.00811148
0.00887196
0.00957135
0.0100323
0.0101966
0.0100002
0.00929146
0.00780794
0.00424618
0.00176153
0.00221624
0.00335231
0.00491698
0.00630841
0.0064126
0.00161534
0.00145803
0.00133892
0.0012423
0.00116065
0.00108759
0.00101737
0.000945276
0.000865545
0.000774831
0.000743975
0.000953847
0.000562844
0.00278132
0.00929951
0.00565291
0.0062749
0.00656678
0.0064296
0.00639047
0.00656497
0.00698443
0.00766832
0.00848237
0.00921567
0.00969971
0.00989929
0.00987785
0.00966935
0.0090326
0.00757124
0.00689413
0.00741964
0.00825933
0.00908568
0.00957684
0.00940197
0.00775095
0.00675585
0.00611251
0.00563206
0.00513526
0.00456518
0.00391544
0.0031828
0.00238717
0.00162522
0.00111194
0.00102486
0.000678317
0.000615035
0.000705426
0.000772071
0.00314429
0.0114592
0.00752874
0.00625215
0.00656879
0.00647735
0.00641105
0.00650238
0.00687486
0.00758982
0.0084693
0.00923455
0.00968733
0.00982522
0.00980899
0.00983495
0.00993971
0.0100004
0.0104943
0.0112532
0.0118058
0.0120044
0.0118014
0.0111979
0.0102257
0.00934551
0.00860731
0.00790759
0.00715881
0.00633729
0.00542307
0.00440863
0.00332116
0.00227534
0.00151242
0.00117286
0.000840968
0.000734043
0.00102502
0.000793821
0.00348375
0.0129634
0.0103911
0.00791032
0.00747893
0.00715923
0.00675645
0.00665281
0.00703765
0.007859
0.00884075
0.00963788
0.0100491
0.010149
0.0102274
0.010628
0.0113838
0.0121873
0.0129969
0.0135427
0.0136348
0.0133053
0.012637
0.0117495
0.0107949
0.00993341
0.00915129
0.00837259
0.00756968
0.00671602
0.00579347
0.00479663
0.00374671
0.00273112
0.00195237
0.00149815
0.00117784
0.00108681
0.00108237
0.000871921
0.00355782
0.0113853
0.010142
0.00921473
0.00837114
0.00735121
0.00669672
0.00670564
0.00738667
0.00849027
0.0096119
0.0103812
0.0106867
0.0108132
0.0112126
0.0121258
0.0129673
0.0135971
0.0140473
0.0141422
0.0137868
0.0130626
0.0120962
0.0110307
0.01
0.00908587
0.00826997
0.00749994
0.00673702
0.00596326
0.00517541
0.00438009
0.00359666
0.00287582
0.00230713
0.00192719
0.00183722
0.00202903
0.00268604
0.00140172
0.00347486
0.00415334
0.00452395
0.00462368
0.00464465
0.00482774
0.00546651
0.00666419
0.00822418
0.00974076
0.0108223
0.0112604
0.0112803
0.011722
0.0123083
0.0128428
0.0131863
0.0133802
0.0133596
0.0130149
0.0123234
0.0113536
0.0102378
0.00910786
0.00807463
0.00718128
0.00639423
0.00566231
0.0049432
0.00422995
0.00353797
0.00290414
0.00238422
0.00203177
0.00186682
0.00187089
0.00196011
0.00200958
0.00193249
0.00138952
0.0011768
0.00218323
0.00377025
0.00579729
0.0079647
0.00988659
0.0112328
0.0118436
0.011848
0.0115637
0.0113209
0.0114624
0.0116008
0.0116191
0.0115382
0.0113183
0.010871
0.0101591
0.00924405
0.0082421
0.00726617
0.00640682
0.00568963
0.00508185
0.00453408
0.00401103
0.00351018
0.0030477
0.00264615
0.00232603
0.00210035
0.00197195
0.00193105
0.0019492
0.00197121
0.00193058
0.00181098
0.00126952
0.0025483
0.00694027
0.0102205
0.0117647
0.0121313
0.0120717
0.011596
0.010806
0.00998253
0.00937592
0.00896329
0.008658
0.00839861
0.00817134
0.00792725
0.0075981
0.00714603
0.00659648
0.00602362
0.00549663
0.00504424
0.00465765
0.00431048
0.00397897
0.00365189
0.00333076
0.00302585
0.00275032
0.00251602
0.00233198
0.00220416
0.00213414
0.00211414
0.00212068
0.00212835
0.00216878
0.00251691
0.00131948
0.00268493
0.00279456
0.0028906
0.00325014
0.00305855
0.00274339
0.00248212
0.00229628
0.00211108
0.00191755
0.00173644
0.00159228
0.00149457
0.00143326
0.00139332
0.00136278
0.00133321
0.00129967
0.00126106
0.00121987
0.00117998
0.00114404
0.00111266
0.00108532
0.00106147
0.00104114
0.00102494
0.00101369
0.00100796
0.00100807
0.0010142
0.00102666
0.00104609
0.00107346
0.00110946
0.00115237
0.00119861
0.0011969
0.00113849
0.00108971
)
;

boundaryField
{
    floor
    {
        type            compressible::alphatWallFunction;
        Prt             0.85;
        value           nonuniform List<scalar> 
36
(
0.000190694
0.000104444
0.000125177
0.000148077
0.000162203
0.000163478
0.000154602
0.000143875
0.000134127
0.000125667
0.000118351
0.000112019
0.000106486
0.000101542
9.70016e-05
9.25627e-05
8.77388e-05
8.17435e-05
7.2259e-05
7.22581e-05
7.56868e-05
7.65335e-05
7.88008e-05
8.66559e-05
0.000100053
0.00010978
0.000190692
0.000247752
0.000213472
0.00017481
0.000104442
0.000174808
9.8852e-05
0.000216292
0.00014703
0.000245829
)
;
    }
    ceiling
    {
        type            compressible::alphatWallFunction;
        Prt             0.85;
        value           nonuniform List<scalar> 
43
(
0.000364794
0.000378602
0.000390652
0.000435506
0.000411793
0.000372369
0.000339309
0.00031557
0.0002917
0.00026651
0.000242681
0.000223517
0.000210418
0.00020215
0.000196744
0.000192601
0.00018858
0.000184007
0.000178727
0.000173074
0.00016758
0.000162611
0.000158258
0.000154454
0.000151125
0.00014828
0.00014601
0.00014443
0.000143626
0.000143643
0.000144507
0.00014626
0.000148986
0.000152814
0.000157834
0.000163792
0.000170183
0.000169946
0.00016186
0.00015507
0.000463466
0.000546067
0.000347331
)
;
    }
    sWall
    {
        type            compressible::alphatWallFunction;
        Prt             0.85;
        value           uniform 0.000363559;
    }
    nWall
    {
        type            compressible::alphatWallFunction;
        Prt             0.85;
        value           nonuniform List<scalar> 6(0.000109603 0.00011275 0.000124017 0.000179612 0.000186443 0.000154769);
    }
    sideWalls
    {
        type            empty;
    }
    glass1
    {
        type            compressible::alphatWallFunction;
        Prt             0.85;
        value           nonuniform List<scalar> 9(0.000192909 0.000245596 0.000288413 0.00032894 0.000370528 0.000415605 0.000457319 0.000466497 0.000456601);
    }
    glass2
    {
        type            compressible::alphatWallFunction;
        Prt             0.85;
        value           nonuniform List<scalar> 2(0.000196675 0.000195071);
    }
    sun
    {
        type            compressible::alphatWallFunction;
        Prt             0.85;
        value           nonuniform List<scalar> 
14
(
0.000197656
0.000217414
0.000225472
0.000237022
0.000247815
0.00025839
0.000269537
0.000279559
0.00028716
0.000290961
0.000289734
0.000282061
0.000260418
0.000226586
)
;
    }
    Table_master
    {
        type            compressible::alphatWallFunction;
        Prt             0.85;
        value           nonuniform List<scalar> 9(0.000203732 0.000179064 0.000157764 0.000139841 0.000124645 0.000111466 9.97628e-05 8.94369e-05 8.24439e-05);
    }
    Table_slave
    {
        type            compressible::alphatWallFunction;
        Prt             0.85;
        value           nonuniform List<scalar> 9(0.000226548 0.000205447 0.000189303 0.000176088 0.000164829 0.000154677 0.000144846 0.000134669 0.000123306);
    }
    inlet
    {
        type            fixedValue;
        value           uniform 1.94e-05;
    }
    outlet
    {
        type            zeroGradient;
    }
}


// ************************************************************************* //
