/*--------------------------------*- C++ -*----------------------------------*\
  =========                 |
  \\      /  F ield         | OpenFOAM: The Open Source CFD Toolbox
   \\    /   O peration     | Website:  https://openfoam.org
    \\  /    A nd           | Version:  6
     \\/     M anipulation  |
\*---------------------------------------------------------------------------*/
FoamFile
{
    version     2.0;
    format      ascii;
    class       volScalarField;
    location    "90";
    object      k;
}
// * * * * * * * * * * * * * * * * * * * * * * * * * * * * * * * * * * * * * //

dimensions      [0 2 -2 0 0 0 0];

internalField   nonuniform List<scalar> 
458
(
0.00288503
0.0035151
0.00379367
0.00421407
0.00462921
0.00505698
0.00553074
0.00597666
0.00632741
0.00650673
0.00644808
0.00608986
0.00514059
0.00383265
0.00267364
0.000796814
0.00113757
0.0015943
0.00191955
0.00195072
0.00174053
0.00150417
0.00130596
0.00114652
0.00101793
0.000913517
0.000827446
0.000754569
0.000690942
0.000631774
0.000570828
0.000499882
0.000398291
0.00477111
0.00861517
0.00562491
0.00608328
0.00670185
0.00744731
0.00830415
0.0092722
0.01019
0.0108305
0.0110338
0.010739
0.00981007
0.00852906
0.00638976
0.00462732
0.00338297
0.00223391
0.000716489
0.00183498
0.00264626
0.0031525
0.00333327
0.00289349
0.00236216
0.00192903
0.001598
0.00134292
0.00114467
0.000989989
0.0008701
0.000763826
0.000676067
0.000618763
0.000618319
0.0004337
0.00669689
0.014698
0.00646302
0.00641673
0.0068873
0.00757891
0.0084835
0.0095381
0.0105292
0.0112825
0.0116972
0.0116442
0.0110423
0.0100533
0.00870412
0.00716023
0.00587196
0.00347793
0.00157179
0.00252171
0.00328169
0.00377575
0.00390169
0.0030719
0.00234965
0.00181136
0.00141806
0.00112614
0.000903076
0.000727842
0.000590651
0.000506822
0.000475406
0.0004883
0.000613217
0.000442783
0.00885692
0.0231682
0.0075952
0.00629947
0.00653668
0.00719875
0.00827943
0.00941849
0.0103956
0.0111944
0.0117509
0.0118152
0.0113356
0.0104462
0.00933369
0.00820767
0.00712289
0.00536746
0.00455366
0.00411847
0.00433299
0.00473307
0.00499353
0.00488962
0.00383958
0.00312895
0.00263917
0.00227244
0.00198389
0.00174227
0.00152481
0.00131658
0.00110404
0.000792214
0.000592108
0.000681169
0.000467451
0.0114244
0.0348061
0.0106671
0.00650741
0.00636592
0.00718995
0.00883076
0.00996534
0.0108407
0.011638
0.0122038
0.0122421
0.0116237
0.0105231
0.0092916
0.00821793
0.00735651
0.00667555
0.00666029
0.00663492
0.00669652
0.0067222
0.00652548
0.00601172
0.0052303
0.00457308
0.00410307
0.00372367
0.00335334
0.00296004
0.00253422
0.00207406
0.00158867
0.00109544
0.000732531
0.00068125
0.000509745
0.000558993
0.000736257
0.000881897
0.0146184
0.0476438
0.0185803
0.00877754
0.00769506
0.00919295
0.010755
0.0114323
0.0120108
0.0127426
0.0132933
0.0132036
0.012288
0.0107957
0.00922892
0.00801409
0.007374
0.00733978
0.0077848
0.00821821
0.00836405
0.00812528
0.00751473
0.006625
0.00569234
0.00500745
0.00452814
0.004108
0.00367607
0.00321406
0.00271746
0.00219379
0.00166559
0.00117894
0.000822731
0.000689171
0.00055882
0.000562282
0.00111158
0.000932017
0.0179652
0.0558411
0.0313763
0.0178675
0.0146239
0.0146676
0.0141343
0.0137174
0.0139187
0.0145824
0.0150631
0.0147198
0.0133528
0.0113462
0.00941358
0.00813631
0.00776358
0.00815975
0.00886082
0.00927049
0.00914299
0.00853783
0.00759994
0.00651402
0.00553591
0.0048576
0.00438872
0.00397413
0.00355142
0.00310389
0.00263247
0.00214795
0.00167241
0.00125231
0.000962794
0.000831625
0.000775299
0.000876646
0.00121107
0.00112482
0.0187658
0.0542626
0.0385988
0.0301399
0.0249373
0.0204248
0.0173898
0.0161658
0.0163974
0.017219
0.0175549
0.0166769
0.0145374
0.0118149
0.00956661
0.00839658
0.00827651
0.00872891
0.00920922
0.00925148
0.00873411
0.00783108
0.00675595
0.00571951
0.00489619
0.00432987
0.00391957
0.0035649
0.00322067
0.00287768
0.00253901
0.00221146
0.00190581
0.00164886
0.00149358
0.00158142
0.00204606
0.00309769
0.00685761
0.00290939
0.0179397
0.0255807
0.0232748
0.0204811
0.0180852
0.0165642
0.0164976
0.0178087
0.0197012
0.0209851
0.0205993
0.0183151
0.0146921
0.0110646
0.00911302
0.00832223
0.00820804
0.00834345
0.00835382
0.00801811
0.0073414
0.00645012
0.00552698
0.00471557
0.00408924
0.00363138
0.00327549
0.00296977
0.00268893
0.0024323
0.0022104
0.00204379
0.00196637
0.00202615
0.00227784
0.00276901
0.00344003
0.00405477
0.00431986
0.0028612
0.00515206
0.00848172
0.0130244
0.0180802
0.0226658
0.0258295
0.0267654
0.0251104
0.0206686
0.0151974
0.011247
0.00894015
0.00787913
0.00743811
0.00725821
0.00708848
0.00676268
0.00623708
0.00558663
0.00491861
0.00431603
0.00382149
0.00342811
0.00310147
0.00281048
0.00254218
0.00230193
0.00210389
0.00196467
0.00190123
0.00193097
0.00207201
0.00233703
0.00270951
0.00310086
0.00333622
0.00331017
0.00238838
0.00919535
0.030746
0.0376304
0.0370621
0.0333357
0.0289318
0.0237482
0.0184027
0.0136511
0.0102277
0.00818726
0.00709346
0.00656426
0.00630279
0.0061378
0.00596378
0.00572644
0.00542181
0.00508304
0.00474593
0.00442656
0.00412177
0.00381992
0.00351333
0.00320444
0.00290566
0.00263587
0.00241375
0.00225425
0.00216924
0.00216951
0.00226455
0.00245391
0.00270674
0.00296817
0.00326817
0.00409878
0.00257997
0.0103769
0.0112389
0.0120244
0.0153407
0.0136728
0.011048
0.0090665
0.00777183
0.00657626
0.00543043
0.00445574
0.00374812
0.00330313
0.0030383
0.00287186
0.00274784
0.00263033
0.00250005
0.00235407
0.00220312
0.00206168
0.00193822
0.00183353
0.00174467
0.00166892
0.00160566
0.00155616
0.00152223
0.00150512
0.00150549
0.0015239
0.00156161
0.00162128
0.00170721
0.00182366
0.00196746
0.00212859
0.00212261
0.00192046
0.00175971
)
;

boundaryField
{
    floor
    {
        type            kqRWallFunction;
        value           nonuniform List<scalar> 
36
(
0.00267364
0.000796814
0.00113757
0.0015943
0.00191955
0.00195072
0.00174053
0.00150417
0.00130596
0.00114652
0.00101793
0.000913517
0.000827446
0.000754569
0.000690942
0.000631774
0.000570828
0.000499882
0.000398291
0.000398291
0.0004337
0.000442783
0.000467451
0.000558993
0.000736257
0.000881897
0.00267364
0.00462732
0.00338297
0.00223391
0.000796814
0.00223391
0.000716489
0.00347793
0.00157179
0.00455366
)
;
    }
    ceiling
    {
        type            kqRWallFunction;
        value           nonuniform List<scalar> 
43
(
0.0103769
0.0112389
0.0120244
0.0153407
0.0136728
0.011048
0.0090665
0.00777183
0.00657626
0.00543043
0.00445574
0.00374812
0.00330313
0.0030383
0.00287186
0.00274784
0.00263033
0.00250005
0.00235407
0.00220312
0.00206168
0.00193822
0.00183353
0.00174467
0.00166892
0.00160566
0.00155616
0.00152223
0.00150512
0.00150549
0.0015239
0.00156161
0.00162128
0.00170721
0.00182366
0.00196746
0.00212859
0.00212261
0.00192046
0.00175971
0.0179397
0.0255807
0.00919535
)
;
    }
    sWall
    {
        type            kqRWallFunction;
        value           uniform 0.0103769;
    }
    nWall
    {
        type            kqRWallFunction;
        value           nonuniform List<scalar> 6(0.000881897 0.000932017 0.00112482 0.00238838 0.00257997 0.00175971);
    }
    sideWalls
    {
        type            empty;
    }
    glass1
    {
        type            kqRWallFunction;
        value           nonuniform List<scalar> 9(0.00288503 0.00477111 0.00669689 0.00885692 0.0114244 0.0146184 0.0179652 0.0187658 0.0179397);
    }
    glass2
    {
        type            kqRWallFunction;
        value           nonuniform List<scalar> 2(0.00290939 0.0028612);
    }
    sun
    {
        type            kqRWallFunction;
        value           nonuniform List<scalar> 
14
(
0.00288503
0.0035151
0.00379367
0.00421407
0.00462921
0.00505698
0.00553074
0.00597666
0.00632741
0.00650673
0.00644808
0.00608986
0.00514059
0.00383265
)
;
    }
    Table_master
    {
        type            kqRWallFunction;
        value           nonuniform List<scalar> 9(0.0030719 0.00234965 0.00181136 0.00141806 0.00112614 0.000903076 0.000727842 0.000590651 0.000506822);
    }
    Table_slave
    {
        type            kqRWallFunction;
        value           nonuniform List<scalar> 9(0.00383958 0.00312895 0.00263917 0.00227244 0.00198389 0.00174227 0.00152481 0.00131658 0.00110404);
    }
    inlet
    {
        type            turbulentIntensityKineticEnergyInlet;
        intensity       0.05;
        value           uniform 0.000937501;
    }
    outlet
    {
        type            zeroGradient;
    }
}


// ************************************************************************* //
