/*--------------------------------*- C++ -*----------------------------------*\
  =========                 |
  \\      /  F ield         | OpenFOAM: The Open Source CFD Toolbox
   \\    /   O peration     | Website:  https://openfoam.org
    \\  /    A nd           | Version:  6
     \\/     M anipulation  |
\*---------------------------------------------------------------------------*/
FoamFile
{
    version     2.0;
    format      ascii;
    class       volScalarField;
    location    "31299.9999979235836";
    object      nut;
}
// * * * * * * * * * * * * * * * * * * * * * * * * * * * * * * * * * * * * * //

dimensions      [0 2 -1 0 0 0 0];

internalField   nonuniform List<scalar> 
778
(
0.000894307
0.000953039
0.000949541
0.000990735
0.00102849
0.00106279
0.00109473
0.00112553
0.00115655
0.00118951
0.00122096
0.00125084
0.00128027
0.0013119
0.0013449
0.000632368
0.000905423
0.000912821
0.000890796
0.000853882
0.000804502
0.00075526
0.000709893
0.000669004
0.00063236
0.000599719
0.000570403
0.000543697
0.000518768
0.000494504
0.000469131
0.000448048
0.000405561
0.00131079
0.00258105
0.002265
0.00261428
0.00286766
0.00313628
0.00340426
0.00365127
0.00385018
0.0039661
0.00403427
0.00400635
0.00380658
0.00331156
0.00241851
0.00147251
0.00140391
0.00134381
0.00113082
0.0019265
0.00267058
0.00311033
0.00313112
0.00247089
0.00211321
0.00186538
0.00167724
0.00152751
0.00139977
0.00128689
0.00118189
0.00107917
0.000987005
0.000907535
0.00102195
0.000514123
0.00166405
0.00360427
0.00267219
0.00382228
0.00427087
0.00465046
0.00499523
0.00529874
0.00555598
0.00575783
0.00595332
0.00615898
0.00634786
0.00646002
0.0063849
0.00584542
0.00427465
0.00164821
0.00142677
0.00305213
0.00425935
0.00483083
0.00439358
0.00115949
0.00100832
0.000891681
0.000800387
0.00072771
0.000669032
0.000621163
0.000582229
0.000551877
0.000606715
0.000713622
0.00112941
0.000584817
0.00200528
0.00485823
0.0025572
0.00429818
0.00496253
0.005318
0.0055794
0.00577285
0.00591734
0.00603461
0.00620112
0.00648228
0.00689232
0.00740757
0.00792505
0.00817913
0.00767867
0.00572582
0.00164152
0.00380338
0.0056558
0.00659645
0.00682869
0.00582986
0.00132013
0.0012008
0.00110846
0.00103168
0.000966218
0.000907414
0.000851961
0.000796884
0.000737409
0.000688947
0.000713986
0.00122209
0.000643881
0.00234203
0.00643285
0.00258016
0.00408636
0.00510797
0.00541127
0.00552154
0.00552607
0.0054715
0.00542327
0.00549313
0.00576637
0.00626742
0.0069765
0.00779844
0.00855517
0.00903505
0.00902898
0.00810334
0.00824527
0.00843343
0.00845925
0.00828714
0.00775706
0.00617347
0.00533304
0.00475742
0.00428953
0.00383077
0.00338643
0.0029517
0.00251742
0.00207112
0.00159106
0.0012144
0.00121201
0.000959134
0.000767376
0.00100697
0.000966436
0.00267367
0.00819601
0.00303777
0.00344622
0.00489458
0.00523123
0.00520473
0.00501784
0.00475046
0.00452989
0.00452517
0.00481141
0.00538236
0.00620455
0.00716646
0.00812677
0.00894458
0.0094669
0.00956175
0.0094652
0.00929645
0.00905763
0.00875129
0.00836199
0.00779404
0.00724695
0.00675025
0.00626988
0.00575142
0.00519785
0.00460651
0.00397226
0.00329105
0.00256839
0.00191478
0.00143783
0.00111594
0.00124883
0.002164
0.00115728
0.00301221
0.00982749
0.00404845
0.00282352
0.00439822
0.00494861
0.00488802
0.00458537
0.00414607
0.00375935
0.00374817
0.00410933
0.00476269
0.00568139
0.00672684
0.00776132
0.00865165
0.00928939
0.00958263
0.00955935
0.00934861
0.00902993
0.00866544
0.00830217
0.007951
0.00762884
0.0073263
0.00700326
0.00661334
0.00614406
0.00558833
0.00494333
0.00421163
0.00341247
0.00263252
0.00190539
0.00140326
0.00125213
0.00219219
0.00136192
0.00330355
0.0110645
0.00552083
0.00268872
0.00348435
0.0043871
0.00451332
0.00426461
0.00374537
0.00321915
0.00333847
0.00381597
0.00454621
0.00549275
0.00657804
0.00766091
0.0085848
0.00922694
0.00951866
0.00948033
0.00920856
0.00880792
0.00837725
0.00799551
0.00770133
0.00749118
0.00732739
0.00714938
0.00690194
0.00655559
0.0060965
0.00552175
0.00483708
0.00406388
0.00326234
0.00245377
0.00172578
0.00114014
0.00313771
0.00177411
0.00339335
0.0104838
0.006837
0.00347728
0.00236281
0.00289544
0.00338802
0.00342974
0.00302865
0.00294437
0.00325045
0.00381168
0.0046005
0.00560338
0.00674015
0.00785618
0.00877707
0.00937013
0.00957876
0.00943571
0.00904202
0.00852555
0.00801332
0.00760484
0.00734561
0.00721824
0.00716047
0.00709202
0.00694985
0.00669986
0.00632833
0.00583368
0.00522269
0.00451353
0.00373843
0.00287164
0.00172205
0.00137996
0.0047219
0.00202259
0.00332468
0.00845823
0.00706641
0.00477607
0.00315331
0.00244158
0.00231258
0.00242129
0.00262517
0.00294969
0.00340919
0.00404014
0.00489689
0.00597694
0.00717476
0.00830637
0.00917957
0.00966137
0.00971252
0.00938985
0.00882083
0.00816579
0.00758142
0.00718136
0.00699804
0.00697631
0.00701566
0.0070147
0.00692252
0.00671985
0.0064
0.00596244
0.00541166
0.004754
0.00395751
0.00278018
0.00135058
0.00235115
0.00486348
0.00206201
0.00311441
0.0072312
0.00683523
0.00546847
0.00420721
0.00338674
0.00298135
0.00289009
0.00305865
0.00336812
0.00381662
0.0044813
0.00542584
0.00660859
0.00786662
0.00897435
0.0097277
0.0100094
0.00981382
0.00923875
0.00845653
0.00767338
0.00707912
0.00678118
0.0067464
0.00684326
0.00694121
0.00694277
0.00684545
0.00664872
0.00634812
0.00593922
0.00541885
0.00476574
0.00379842
0.00215652
0.00147902
0.00294163
0.00465512
0.00204135
0.00283605
0.00652078
0.0065952
0.00579078
0.00492487
0.00427369
0.00389073
0.00375417
0.00378924
0.00397582
0.00438648
0.00512736
0.00621774
0.00752653
0.00881093
0.0098083
0.0103244
0.0102844
0.0097409
0.00885347
0.00786286
0.00703644
0.00657017
0.00647509
0.00655426
0.00668189
0.00676761
0.00674385
0.0066314
0.00643241
0.00613903
0.00573985
0.00521901
0.00450861
0.00315102
0.00153765
0.0019026
0.00321769
0.00426624
0.00197555
0.00258637
0.00583267
0.00629794
0.00591739
0.00536142
0.00489483
0.0045849
0.00443382
0.00438881
0.00454715
0.00506721
0.006034
0.00735218
0.00876819
0.00996961
0.010694
0.0108018
0.010296
0.00931876
0.00811742
0.00703145
0.00633685
0.00602986
0.00598534
0.00606477
0.00617891
0.00625856
0.00624101
0.00613228
0.00593297
0.00563252
0.00521621
0.00466221
0.00386468
0.00249135
0.00150769
0.00212929
0.00335824
0.00419842
0.00192136
0.00259429
0.00578844
0.0064346
0.00598936
0.00553933
0.00517105
0.00490566
0.00473321
0.00472485
0.0051091
0.00602629
0.00739548
0.00894052
0.0103079
0.0111847
0.0113845
0.0108823
0.009791
0.00838691
0.00703044
0.00604996
0.00547004
0.00518509
0.00509872
0.00513425
0.00522541
0.00530731
0.00530648
0.00519644
0.00497413
0.00462776
0.00415623
0.00358005
0.00291249
0.00212245
0.00160742
0.00218523
0.00348258
0.0046518
0.0019961
0.00234167
0.00243523
0.00359196
0.00421905
0.00441224
0.00441439
0.00437064
0.00445023
0.00498746
0.0061317
0.00773788
0.00946882
0.0109498
0.0118699
0.0120458
0.0114393
0.0101948
0.00854389
0.00696877
0.00573962
0.00490854
0.00441469
0.00416445
0.00405909
0.00403453
0.00405265
0.00407368
0.00403314
0.00387519
0.00359406
0.00319918
0.00274859
0.00233922
0.00204602
0.00187776
0.0018641
0.00239218
0.00385696
0.00467538
0.00207768
0.000807905
0.00146597
0.00226221
0.00290251
0.00364318
0.00490022
0.0067461
0.00878971
0.010645
0.0120286
0.0127507
0.0126897
0.0118498
0.0103163
0.00848831
0.00675277
0.0053738
0.00443715
0.00390342
0.00361956
0.00345383
0.00334042
0.00325341
0.00318024
0.00310429
0.00299319
0.0028084
0.00255562
0.00228153
0.00206528
0.00196701
0.00199417
0.00213117
0.00240563
0.00299638
0.00455502
0.00496708
0.00210462
0.00149713
0.00207716
0.00303251
0.00474049
0.00706097
0.00938484
0.0111886
0.0124874
0.0132685
0.0134827
0.0130374
0.0118399
0.0100756
0.00808943
0.00627436
0.00490744
0.00408501
0.00366128
0.00343288
0.00328385
0.00317156
0.00308324
0.00301321
0.00295364
0.00289043
0.00280242
0.00267791
0.00253528
0.00241451
0.00236433
0.00241383
0.00256009
0.00279115
0.00312813
0.0036675
0.00478049
0.00535963
0.00208568
0.00275763
0.0066642
0.00612108
0.00547625
0.00697338
0.00931676
0.0112999
0.0126398
0.013344
0.0135165
0.0132426
0.0124912
0.0112285
0.00951904
0.00761391
0.00589057
0.00468553
0.00402745
0.00368533
0.00347322
0.00331564
0.00319484
0.00311201
0.00306949
0.0030636
0.00308211
0.00310427
0.00310498
0.00308007
0.00305509
0.00305227
0.00309171
0.0031853
0.00332952
0.00350665
0.00369588
0.00388273
0.00405534
0.00408914
0.00199898
0.00263916
0.0050991
0.00658424
0.00840703
0.00934154
0.0103157
0.0108895
0.0110346
0.0108263
0.0103192
0.00953667
0.00849727
0.00726833
0.0060135
0.00496606
0.0042575
0.00380457
0.00351019
0.00329267
0.0031184
0.00298401
0.00289785
0.00286908
0.00290142
0.00298922
0.00311506
0.00324906
0.00335197
0.00341259
0.00346491
0.00353238
0.00362888
0.00376041
0.00392651
0.00412301
0.00434327
0.00457428
0.00480898
0.00460823
0.00201748
0.00247397
0.00211936
0.00210865
0.0021696
0.00221988
0.00215266
0.00202213
0.00186947
0.00171664
0.0015726
0.00144032
0.00132231
0.00122305
0.00114806
0.00109958
0.00107418
0.00106711
0.00106805
0.00107501
0.00108813
0.00110773
0.00113329
0.00116333
0.00119578
0.00122869
0.00126075
0.0012916
0.00132194
0.00135246
0.00138439
0.00142004
0.00146131
0.00150936
0.00156449
0.00162574
0.00169019
0.00175514
0.00183215
0.00195616
0.00195968
)
;

boundaryField
{
    floor
    {
        type            nutkWallFunction;
        Cmu             0.09;
        kappa           0.41;
        E               9.8;
        value           nonuniform List<scalar> 
36
(
0.00016058
7.63818e-05
0.000109528
0.000110408
0.000107786
0.000103375
9.7438e-05
9.14751e-05
8.59405e-05
8.09161e-05
7.63818e-05
7.23159e-05
6.86413e-05
6.52736e-05
6.21116e-05
5.90159e-05
5.57582e-05
5.30345e-05
4.74953e-05
4.74953e-05
6.15201e-05
7.04506e-05
7.78108e-05
9.29466e-05
0.000121526
0.000116761
0.00016058
0.000175022
0.000167276
0.000160455
7.63817e-05
0.000160455
0.000135995
0.000194684
0.000169861
0.000193938
)
;
    }
    ceiling
    {
        type            nutkWallFunction;
        Cmu             0.09;
        kappa           0.41;
        E               9.8;
        value           nonuniform List<scalar> 
43
(
0.000284348
0.00024629
0.000245133
0.000251728
0.000257158
0.000249924
0.000235784
0.000219112
0.000202264
0.00018623
0.000171361
0.00015797
0.00014661
0.000137967
0.000132355
0.000129406
0.000128585
0.000128696
0.000129503
0.000131023
0.000133294
0.000136258
0.000139739
0.000143497
0.000147303
0.000151003
0.000154554
0.000158035
0.000161525
0.000165161
0.000169203
0.000173867
0.000179282
0.000185477
0.000192339
0.000199538
0.000206753
0.000215204
0.000228677
0.000229228
0.000270422
0.000280419
0.000177583
)
;
    }
    sWall
    {
        type            nutkWallFunction;
        Cmu             0.09;
        kappa           0.41;
        E               9.8;
        value           nonuniform List<scalar> 9(0.000373892 0.000352078 0.000322967 0.000296607 0.000297444 0.000270512 0.000314406 0.000301933 0.000284449);
    }
    nWall
    {
        type            nutkWallFunction;
        Cmu             0.09;
        kappa           0.41;
        E               9.8;
        value           nonuniform List<scalar> 
14
(
0.000116768
0.000139078
0.000162532
0.000240173
0.000237894
0.000230713
0.000224863
0.000233326
0.000241934
0.000244845
0.000242509
0.000233232
0.000235635
0.000229263
)
;
    }
    sideWalls
    {
        type            empty;
    }
    glass1
    {
        type            nutkWallFunction;
        Cmu             0.09;
        kappa           0.41;
        E               9.8;
        value           nonuniform List<scalar> 9(0.000108248 0.000156883 0.000196738 0.000234352 0.000270796 0.000306147 0.000341761 0.000372081 0.000381379);
    }
    glass2
    {
        type            nutkWallFunction;
        Cmu             0.09;
        kappa           0.41;
        E               9.8;
        value           nonuniform List<scalar> 2(0.000208753 0.000236039);
    }
    sun
    {
        type            nutkWallFunction;
        Cmu             0.09;
        kappa           0.41;
        E               9.8;
        value           nonuniform List<scalar> 
14
(
0.000108206
0.000115178
0.000114764
0.000119627
0.000124064
0.000128078
0.000131803
0.000135383
0.000138977
0.000142785
0.000146407
0.000149837
0.000153208
0.000156821
)
;
    }
    Table_master
    {
        type            nutkWallFunction;
        Cmu             0.09;
        kappa           0.41;
        E               9.8;
        value           nonuniform List<scalar> 9(0.000139309 0.00012169 0.000107889 9.69409e-05 8.81207e-05 8.09231e-05 7.49955e-05 7.01335e-05 6.63159e-05);
    }
    Table_slave
    {
        type            nutkWallFunction;
        Cmu             0.09;
        kappa           0.41;
        E               9.8;
        value           nonuniform List<scalar> 9(0.000157748 0.000144076 0.000133392 0.00012443 0.00011673 0.000109762 0.000103142 9.6518e-05 8.93036e-05);
    }
    inlet
    {
        type            calculated;
        value           uniform 0.000167705;
    }
    outlet
    {
        type            calculated;
        value           nonuniform List<scalar> 2(0.00275763 0.0066642);
    }
}


// ************************************************************************* //
