/*--------------------------------*- C++ -*----------------------------------*\
  =========                 |
  \\      /  F ield         | OpenFOAM: The Open Source CFD Toolbox
   \\    /   O peration     | Website:  https://openfoam.org
    \\  /    A nd           | Version:  6
     \\/     M anipulation  |
\*---------------------------------------------------------------------------*/
FoamFile
{
    version     2.0;
    format      ascii;
    class       volVectorField;
    location    "31299.9999979235836";
    object      U;
}
// * * * * * * * * * * * * * * * * * * * * * * * * * * * * * * * * * * * * * //

dimensions      [0 1 -1 0 0 0 0];

internalField   nonuniform List<vector> 
778
(
(0.0655949 0.0794096 0)
(-0.155181 0.0157688 0)
(-0.164315 0.0146296 0)
(-0.19244 0.0122811 0)
(-0.216887 0.00873189 0)
(-0.23696 0.00475112 0)
(-0.252101 0.000423405 0)
(-0.261885 -0.00436383 0)
(-0.265796 -0.0098091 0)
(-0.26283 -0.0161927 0)
(-0.25103 -0.0242702 0)
(-0.226326 -0.0348942 0)
(-0.186191 -0.0504224 0)
(-0.144242 -0.0752031 0)
(-0.150137 -0.108611 0)
(0.0546129 0.0354901 0)
(0.0156927 -0.0268671 0)
(0.0448605 -0.0232616 0)
(0.0692432 -0.0161586 0)
(0.0842911 -0.0103519 0)
(0.0914956 -0.0064144 0)
(0.0943299 -0.00433506 0)
(0.0953598 -0.00331165 0)
(0.095806 -0.00272536 0)
(0.0959703 -0.00231358 0)
(0.0958424 -0.00195063 0)
(0.0953159 -0.00151166 0)
(0.0940608 -0.000759124 0)
(0.0912193 0.000843152 0)
(0.0850254 0.00406273 0)
(0.0735052 0.00776542 0)
(0.0598712 0.0116064 0)
(-0.00795103 0.0299634 0)
(0.258391 0.167398 0)
(-0.161239 0.0484011 0)
(-0.141616 0.0459915 0)
(-0.174027 0.041629 0)
(-0.199401 0.0356851 0)
(-0.220134 0.0291488 0)
(-0.236179 0.0220786 0)
(-0.247447 0.0142476 0)
(-0.253638 0.00531216 0)
(-0.253969 -0.00514292 0)
(-0.247824 -0.0170815 0)
(-0.234123 -0.0308594 0)
(-0.214218 -0.0480959 0)
(-0.197646 -0.069992 0)
(-0.194139 -0.0826859 0)
(-0.166514 -0.0425999 0)
(-0.105414 -0.0364313 0)
(-0.09834 -0.0445291 0)
(0.109329 -0.0419932 0)
(0.0644199 -0.0411075 0)
(0.0718244 -0.0322344 0)
(0.0857783 -0.0206954 0)
(0.0936588 -0.0104532 0)
(0.0958867 -0.00363861 0)
(0.0956504 -0.000189562 0)
(0.0952644 0.00126163 0)
(0.0952273 0.00190856 0)
(0.0953062 0.00227749 0)
(0.095311 0.00259381 0)
(0.0952094 0.00313149 0)
(0.0949181 0.00440937 0)
(0.0936621 0.00772066 0)
(0.088071 0.0167434 0)
(0.0743303 0.0253111 0)
(0.0630116 0.0329145 0)
(-0.0520119 0.0634962 0)
(0.429966 0.253964 0)
(-0.194236 0.0847752 0)
(-0.112793 0.0784504 0)
(-0.148265 0.066978 0)
(-0.170706 0.0555277 0)
(-0.188811 0.0437597 0)
(-0.20266 0.0313796 0)
(-0.212365 0.0180426 0)
(-0.21773 0.0034294 0)
(-0.2181 -0.012611 0)
(-0.212852 -0.0303157 0)
(-0.201752 -0.0499146 0)
(-0.186117 -0.0715897 0)
(-0.169588 -0.0932471 0)
(-0.151224 -0.10461 0)
(-0.12038 -0.0931974 0)
(-0.0796683 -0.0950191 0)
(-0.0715663 -0.107695 0)
(0.0920803 -0.0880417 0)
(0.0625147 -0.0656602 0)
(0.0742923 -0.0460597 0)
(0.0879016 -0.0291952 0)
(0.0947062 -0.0148564 0)
(0.0917763 -0.0120356 0)
(0.0875453 -0.00798265 0)
(0.0851737 -0.00580177 0)
(0.0844813 -0.00456537 0)
(0.0844643 -0.0037957 0)
(0.0847261 -0.00322232 0)
(0.0853805 -0.0025975 0)
(0.0871404 -0.00144068 0)
(0.0918196 0.00291671 0)
(0.089976 0.0250845 0)
(0.0731892 0.0423096 0)
(0.069948 0.0573905 0)
(-0.0900709 0.100765 0)
(0.578526 0.325854 0)
(-0.240103 0.121833 0)
(-0.0808512 0.109248 0)
(-0.121599 0.0898838 0)
(-0.13904 0.0741061 0)
(-0.15311 0.0586787 0)
(-0.163879 0.0427996 0)
(-0.171484 0.0258556 0)
(-0.175705 0.0072384 0)
(-0.175781 -0.0135017 0)
(-0.1711 -0.036454 0)
(-0.16154 -0.0614523 0)
(-0.147685 -0.0873788 0)
(-0.130724 -0.110314 0)
(-0.109786 -0.123225 0)
(-0.0823259 -0.124582 0)
(-0.0527343 -0.126436 0)
(-0.0336272 -0.123244 0)
(0.0160415 -0.0568257 0)
(0.0606193 -0.0929638 0)
(0.0683362 -0.0791025 0)
(0.0789874 -0.0587484 0)
(0.0914912 -0.039514 0)
(0.102845 -0.0208515 0)
(0.11559 -0.013195 0)
(0.126724 -0.00882444 0)
(0.132309 -0.00561437 0)
(0.133279 -0.00310365 0)
(0.13074 -0.000875793 0)
(0.125263 0.00129521 0)
(0.116726 0.00367423 0)
(0.104366 0.00672359 0)
(0.0851285 0.011144 0)
(0.0712762 0.0367951 0)
(0.0600154 0.06048 0)
(0.0760888 0.0832401 0)
(-0.11773 0.136921 0)
(0.7057 0.383698 0)
(-0.287676 0.157036 0)
(-0.0477161 0.133815 0)
(-0.0963205 0.106959 0)
(-0.107778 0.0876433 0)
(-0.11682 0.0692288 0)
(-0.123617 0.0505075 0)
(-0.128284 0.0306474 0)
(-0.13065 0.00877624 0)
(-0.12985 -0.015781 0)
(-0.125355 -0.0430525 0)
(-0.116739 -0.0726672 0)
(-0.104032 -0.102809 0)
(-0.0875853 -0.129067 0)
(-0.0676621 -0.145771 0)
(-0.0443456 -0.152271 0)
(-0.0205006 -0.152406 0)
(2.11732e-05 -0.14378 0)
(0.0305698 -0.115018 0)
(0.0567755 -0.109341 0)
(0.0704016 -0.0923932 0)
(0.0805761 -0.071207 0)
(0.0906568 -0.0507463 0)
(0.100223 -0.0327062 0)
(0.10933 -0.0193452 0)
(0.11634 -0.00997239 0)
(0.119744 -0.00327771 0)
(0.119919 0.00197275 0)
(0.117484 0.00651113 0)
(0.112814 0.010851 0)
(0.10594 0.0155043 0)
(0.0967955 0.0211753 0)
(0.084883 0.0291666 0)
(0.0733445 0.0471599 0)
(0.0628681 0.0711828 0)
(0.0943821 0.0992681 0)
(0.0165002 0.138122 0)
(0.0957614 0.182836 0)
(0.141012 0.147433 0)
(-0.224913 0.203432 0)
(0.810405 0.431997 0)
(-0.331311 0.190712 0)
(-0.0173355 0.150294 0)
(-0.0734001 0.117572 0)
(-0.0786328 0.0955712 0)
(-0.0822627 0.075011 0)
(-0.0845243 0.0544119 0)
(-0.0855672 0.0327875 0)
(-0.0853147 0.008921 0)
(-0.0826404 -0.0183616 0)
(-0.0774748 -0.0489857 0)
(-0.068854 -0.0824599 0)
(-0.0568754 -0.116451 0)
(-0.0418477 -0.146242 0)
(-0.0248842 -0.165947 0)
(-0.00652395 -0.174479 0)
(0.0118597 -0.172771 0)
(0.0277725 -0.161053 0)
(0.0459533 -0.139367 0)
(0.0624333 -0.12237 0)
(0.0731406 -0.102492 0)
(0.0808504 -0.0804168 0)
(0.0876269 -0.0590555 0)
(0.093814 -0.0401697 0)
(0.0991403 -0.0249937 0)
(0.102813 -0.0136379 0)
(0.104395 -0.00494828 0)
(0.103938 0.00223596 0)
(0.101756 0.00868794 0)
(0.0981009 0.0149249 0)
(0.0931357 0.0214759 0)
(0.0870945 0.0289809 0)
(0.0802381 0.0383654 0)
(0.0744979 0.0527875 0)
(0.0692556 0.0728048 0)
(0.0912223 0.0985535 0)
(0.0729564 0.107337 0)
(0.0893774 0.0480298 0)
(0.146207 -0.0368681 0)
(-0.329014 0.105809 0)
(0.879886 0.474711 0)
(-0.36863 0.221003 0)
(0.00370574 0.155619 0)
(-0.0526969 0.121636 0)
(-0.0522522 0.0979232 0)
(-0.0510817 0.0758972 0)
(-0.0490852 0.0541211 0)
(-0.0465737 0.0316093 0)
(-0.0433874 0.00683899 0)
(-0.0374223 -0.0222416 0)
(-0.0303462 -0.055314 0)
(-0.0205704 -0.0918713 0)
(-0.00878511 -0.128799 0)
(0.0043895 -0.161125 0)
(0.0174275 -0.181794 0)
(0.030197 -0.190173 0)
(0.0419972 -0.187238 0)
(0.0523045 -0.174465 0)
(0.0622894 -0.154122 0)
(0.0708917 -0.132455 0)
(0.0764478 -0.109408 0)
(0.0799359 -0.085872 0)
(0.0825513 -0.063662 0)
(0.084792 -0.0441361 0)
(0.0866143 -0.028019 0)
(0.0876842 -0.0152144 0)
(0.0877824 -0.00494626 0)
(0.0867615 0.00370083 0)
(0.0848191 0.0114051 0)
(0.0821072 0.0186883 0)
(0.0788104 0.0260539 0)
(0.0752161 0.0340148 0)
(0.0717314 0.0431495 0)
(0.0697223 0.0547843 0)
(0.0685452 0.0693511 0)
(0.0814473 0.0885951 0)
(0.0842066 0.0921606 0)
(0.0889732 0.0547539 0)
(0.180759 0.0249593 0)
(-0.281559 0.153767 0)
(0.927945 0.517167 0)
(-0.38316 0.234221 0)
(0.0168949 0.133061 0)
(-0.0273611 0.116738 0)
(-0.0265962 0.0950045 0)
(-0.0227999 0.0725127 0)
(-0.0176968 0.0501865 0)
(-0.012427 0.0273257 0)
(-0.00546879 0.00192261 0)
(0.00452221 -0.0306917 0)
(0.0142435 -0.0652706 0)
(0.0255309 -0.103239 0)
(0.0371453 -0.140718 0)
(0.0477867 -0.171977 0)
(0.0568449 -0.192195 0)
(0.0643089 -0.19974 0)
(0.0700147 -0.195388 0)
(0.0739678 -0.181247 0)
(0.0766807 -0.160186 0)
(0.0780665 -0.136184 0)
(0.0777372 -0.111139 0)
(0.0762615 -0.08657 0)
(0.0744627 -0.0639594 0)
(0.0728594 -0.0443146 0)
(0.0715848 -0.0280171 0)
(0.0705014 -0.0147881 0)
(0.0694156 -0.00393661 0)
(0.0680378 0.0053074 0)
(0.0664933 0.0135184 0)
(0.0647621 0.02118 0)
(0.0629392 0.0287207 0)
(0.0612283 0.0365045 0)
(0.0599523 0.0448484 0)
(0.0599964 0.0542796 0)
(0.061209 0.0648756 0)
(0.0700633 0.0783869 0)
(0.0793697 0.0824366 0)
(0.077843 0.0625392 0)
(0.238623 0.0526157 0)
(-0.558086 0.230974 0)
(1.0113 0.506845 0)
(-0.137344 0.296374 0)
(0.0410749 0.161571 0)
(0.0405611 0.122158 0)
(0.013042 0.0920507 0)
(0.00861603 0.0654395 0)
(0.0140352 0.041459 0)
(0.0206576 0.0170375 0)
(0.0324759 -0.0109816 0)
(0.0439462 -0.042115 0)
(0.0558179 -0.0768537 0)
(0.0680812 -0.114526 0)
(0.079189 -0.150927 0)
(0.0876497 -0.180361 0)
(0.0928269 -0.198412 0)
(0.0948405 -0.203651 0)
(0.0941061 -0.197093 0)
(0.0911762 -0.181129 0)
(0.0867282 -0.158781 0)
(0.0812111 -0.133359 0)
(0.0749127 -0.1073 0)
(0.0684257 -0.0824412 0)
(0.0624648 -0.0601512 0)
(0.0575398 -0.041163 0)
(0.0538311 -0.0255686 0)
(0.0512278 -0.0128801 0)
(0.0494601 -0.00233713 0)
(0.048128 0.00674173 0)
(0.0472209 0.0148483 0)
(0.0465199 0.022419 0)
(0.045991 0.0297886 0)
(0.0457068 0.0371811 0)
(0.0458417 0.0447212 0)
(0.0469098 0.0525415 0)
(0.0489914 0.0604966 0)
(0.0553993 0.0694521 0)
(0.0643806 0.0709411 0)
(0.056206 0.0482217 0)
(0.293879 0.0723581 0)
(-0.770452 0.300515 0)
(0.77934 0.395776 0)
(0.00073781 0.319527 0)
(0.0933713 0.218945 0)
(0.110583 0.155213 0)
(0.0771497 0.106873 0)
(0.0597741 0.0675944 0)
(0.0581919 0.0358002 0)
(0.0623582 0.00643781 0)
(0.0737965 -0.0234217 0)
(0.0853745 -0.0550281 0)
(0.0975677 -0.0897034 0)
(0.109414 -0.126139 0)
(0.118752 -0.159844 0)
(0.12381 -0.185521 0)
(0.123995 -0.199621 0)
(0.119739 -0.201296 0)
(0.112001 -0.191883 0)
(0.101857 -0.173893 0)
(0.0903514 -0.150331 0)
(0.078326 -0.12422 0)
(0.0664689 -0.0980982 0)
(0.0555093 -0.0738983 0)
(0.0461673 -0.0528806 0)
(0.038899 -0.0354939 0)
(0.0337858 -0.0215321 0)
(0.0305723 -0.0102314 0)
(0.0287946 -0.000706764 0)
(0.0279813 0.00764826 0)
(0.027882 0.0152682 0)
(0.0281687 0.0225171 0)
(0.0287124 0.0296223 0)
(0.0294519 0.0366959 0)
(0.0303639 0.0437413 0)
(0.0315598 0.0506898 0)
(0.0328097 0.057315 0)
(0.03506 0.0641965 0)
(0.026375 0.0677913 0)
(0.0224233 0.080866 0)
(0.130258 0.160894 0)
(-0.648316 0.305471 0)
(0.61728 0.22091 0)
(0.00461838 0.298149 0)
(0.113038 0.241565 0)
(0.148308 0.177578 0)
(0.130874 0.123536 0)
(0.117853 0.0778594 0)
(0.11499 0.0389077 0)
(0.11716 0.00340203 0)
(0.123532 -0.0307216 0)
(0.131765 -0.0649987 0)
(0.141447 -0.100438 0)
(0.150303 -0.135219 0)
(0.155392 -0.165005 0)
(0.154794 -0.185504 0)
(0.148198 -0.194428 0)
(0.136509 -0.19179 0)
(0.1212 -0.179302 0)
(0.103783 -0.159498 0)
(0.0856311 -0.135259 0)
(0.0678621 -0.109366 0)
(0.0514281 -0.0842899 0)
(0.0372081 -0.0619145 0)
(0.0259437 -0.0433352 0)
(0.0178904 -0.0286031 0)
(0.0127965 -0.0171231 0)
(0.00999608 -0.00777315 0)
(0.00876684 0.000368031 0)
(0.00870944 0.00777664 0)
(0.00934701 0.0147932 0)
(0.0104328 0.0216715 0)
(0.0118038 0.0285565 0)
(0.0132908 0.035523 0)
(0.0146598 0.0425675 0)
(0.0156587 0.0496036 0)
(0.016015 0.0565103 0)
(0.0151386 0.0648732 0)
(-0.0108295 0.0860402 0)
(-0.00338428 0.121189 0)
(0.108631 0.179204 0)
(-0.55695 0.23981 0)
(0.570769 0.118545 0)
(-0.0202941 0.25866 0)
(0.113748 0.229902 0)
(0.165094 0.17608 0)
(0.166752 0.12621 0)
(0.164406 0.0811213 0)
(0.165389 0.0399826 0)
(0.16832 0.001623 0)
(0.172295 -0.0354054 0)
(0.177884 -0.0719017 0)
(0.184053 -0.107492 0)
(0.187719 -0.139427 0)
(0.18587 -0.163884 0)
(0.177135 -0.178094 0)
(0.161963 -0.181275 0)
(0.141895 -0.174309 0)
(0.118875 -0.159199 0)
(0.094668 -0.138345 0)
(0.0708777 -0.114436 0)
(0.0487634 -0.0899675 0)
(0.0295156 -0.067312 0)
(0.0141561 -0.0482266 0)
(0.0032743 -0.0334472 0)
(-0.00358515 -0.0221598 0)
(-0.00722813 -0.0135849 0)
(-0.00901158 -0.00618145 0)
(-0.00955643 0.000655951 0)
(-0.00911184 0.00717778 0)
(-0.00803232 0.013588 0)
(-0.00642408 0.0200544 0)
(-0.00443705 0.0267205 0)
(-0.0023027 0.0337416 0)
(-0.000437045 0.0412827 0)
(0.000493697 0.0494458 0)
(0.000129628 0.0587593 0)
(-0.00566531 0.0749643 0)
(-0.0380894 0.112727 0)
(-0.0294311 0.152028 0)
(0.0386328 0.183249 0)
(-0.524725 0.172217 0)
(0.628434 0.0536714 0)
(0.00942615 0.197308 0)
(0.11388 0.196981 0)
(0.175173 0.157976 0)
(0.191406 0.11773 0)
(0.198043 0.0773001 0)
(0.203366 0.037275 0)
(0.208582 -0.00154114 0)
(0.213119 -0.0397094 0)
(0.217467 -0.0765394 0)
(0.2193 -0.109851 0)
(0.21545 -0.136519 0)
(0.204038 -0.153997 0)
(0.185154 -0.161335 0)
(0.160412 -0.159106 0)
(0.131973 -0.148704 0)
(0.102093 -0.132182 0)
(0.072502 -0.111597 0)
(0.0450018 -0.0894546 0)
(0.0208607 -0.0679611 0)
(0.00168566 -0.0494267 0)
(-0.0115593 -0.0354321 0)
(-0.0191836 -0.0257693 0)
(-0.0234109 -0.0182135 0)
(-0.0255584 -0.0116563 0)
(-0.0265248 -0.0054892 0)
(-0.0266393 0.000458974 0)
(-0.0259927 0.00626392 0)
(-0.0247108 0.0120573 0)
(-0.0227754 0.0180121 0)
(-0.020286 0.0243517 0)
(-0.0174642 0.0313886 0)
(-0.0147881 0.0395547 0)
(-0.0131779 0.049507 0)
(-0.0132574 0.0629177 0)
(-0.01735 0.0872425 0)
(-0.0437238 0.135116 0)
(-0.0356884 0.183078 0)
(-0.00820881 0.174662 0)
(-0.540971 0.0748339 0)
(0.472464 0.0747641 0)
(-0.132006 0.137615 0)
(0.0942596 0.133371 0)
(0.172733 0.116879 0)
(0.203817 0.0954077 0)
(0.218078 0.0644246 0)
(0.228057 0.0283689 0)
(0.237163 -0.00904195 0)
(0.243603 -0.0454155 0)
(0.245162 -0.0783051 0)
(0.239208 -0.105041 0)
(0.224384 -0.123606 0)
(0.201213 -0.133203 0)
(0.171594 -0.134317 0)
(0.138098 -0.128218 0)
(0.103012 -0.116172 0)
(0.0686744 -0.100042 0)
(0.0363045 -0.081419 0)
(0.00837905 -0.0628249 0)
(-0.0141906 -0.0463067 0)
(-0.0280609 -0.0352462 0)
(-0.036243 -0.0275407 0)
(-0.0406343 -0.0215312 0)
(-0.0429306 -0.0160292 0)
(-0.0440295 -0.0106348 0)
(-0.0444167 -0.00524497 0)
(-0.0442422 5.52585e-05 0)
(-0.0434748 0.00521128 0)
(-0.0421055 0.0103148 0)
(-0.039953 0.0155882 0)
(-0.0370194 0.0213666 0)
(-0.0334234 0.0281315 0)
(-0.0295175 0.0365823 0)
(-0.0260945 0.0478783 0)
(-0.0233944 0.0643231 0)
(-0.0184041 0.0916159 0)
(-0.0237078 0.140409 0)
(-0.0179687 0.2044 0)
(0.11346 0.196351 0)
(-0.464645 0.039864 0)
(0.724069 0.134421 0)
(0.0818284 0.115237 0)
(0.149712 0.099266 0)
(0.222336 0.0805701 0)
(0.243967 0.0700076 0)
(0.248747 0.0477029 0)
(0.25507 0.0175088 0)
(0.261232 -0.0148334 0)
(0.260323 -0.0448791 0)
(0.249893 -0.0696472 0)
(0.229697 -0.0874356 0)
(0.201297 -0.0978209 0)
(0.167051 -0.101161 0)
(0.129476 -0.0984835 0)
(0.0910621 -0.0910822 0)
(0.0532402 -0.0796355 0)
(0.0188156 -0.0658289 0)
(-0.0126629 -0.0508404 0)
(-0.0346573 -0.0395361 0)
(-0.0490291 -0.0318899 0)
(-0.0572546 -0.027003 0)
(-0.0617774 -0.023094 0)
(-0.0641237 -0.0192212 0)
(-0.0652358 -0.0149446 0)
(-0.0656071 -0.0102692 0)
(-0.0655132 -0.00537753 0)
(-0.0650457 -0.000532084 0)
(-0.064165 0.00407423 0)
(-0.0628458 0.00846358 0)
(-0.0607297 0.0128939 0)
(-0.0577121 0.0177981 0)
(-0.0537658 0.0237972 0)
(-0.0489655 0.0318082 0)
(-0.0435221 0.043211 0)
(-0.0369441 0.0599783 0)
(-0.0248521 0.0851639 0)
(-0.00939421 0.125266 0)
(0.00140444 0.184987 0)
(0.163336 0.183886 0)
(-0.365155 0.0964752 0)
(0.191744 0.0880596 0)
(0.225606 0.0998686 0)
(0.246376 0.0702502 0)
(0.242453 0.0398839 0)
(0.239695 0.0121175 0)
(0.234749 -0.0129758 0)
(0.220108 -0.0334838 0)
(0.196487 -0.0485599 0)
(0.166199 -0.058186 0)
(0.131658 -0.0628661 0)
(0.0946311 -0.0629521 0)
(0.0570119 -0.0592039 0)
(0.0207825 -0.052551 0)
(-0.0148006 -0.0432097 0)
(-0.04229 -0.0347368 0)
(-0.0627608 -0.028405 0)
(-0.0760614 -0.0250052 0)
(-0.0841269 -0.0232404 0)
(-0.0887807 -0.0219661 0)
(-0.0914595 -0.0201855 0)
(-0.0929165 -0.0175714 0)
(-0.0935584 -0.0141228 0)
(-0.0936352 -0.0100269 0)
(-0.0933345 -0.00556836 0)
(-0.0927542 -0.00108906 0)
(-0.0919088 0.0031109 0)
(-0.0909256 0.00692266 0)
(-0.0894197 0.0105466 0)
(-0.0872001 0.0144628 0)
(-0.0840139 0.0193477 0)
(-0.079412 0.0260835 0)
(-0.0727788 0.0357395 0)
(-0.0630571 0.0494267 0)
(-0.0469663 0.0681106 0)
(-0.0211441 0.0936345 0)
(0.00632997 0.137331 0)
(0.183252 0.155081 0)
(-0.342925 0.155619 0)
(0.450884 0.209877 0)
(0.205906 0.178852 0)
(0.152444 0.11882 0)
(0.139485 0.0639637 0)
(0.12826 0.0257107 0)
(0.114379 0.00156149 0)
(0.0990579 -0.0131582 0)
(0.0780678 -0.0221882 0)
(0.0533624 -0.0275602 0)
(0.026052 -0.0296825 0)
(-0.00417729 -0.0284543 0)
(-0.0339047 -0.0249128 0)
(-0.0604573 -0.0206402 0)
(-0.0826577 -0.0171717 0)
(-0.0988555 -0.0160058 0)
(-0.109727 -0.016633 0)
(-0.116588 -0.0183089 0)
(-0.121041 -0.0197266 0)
(-0.124076 -0.0201812 0)
(-0.126197 -0.0193688 0)
(-0.127627 -0.0172653 0)
(-0.128489 -0.0139986 0)
(-0.128875 -0.00982136 0)
(-0.128869 -0.00511162 0)
(-0.128525 -0.000388228 0)
(-0.127893 0.00374364 0)
(-0.127274 0.00706153 0)
(-0.126482 0.00993951 0)
(-0.125277 0.0128626 0)
(-0.123265 0.0163461 0)
(-0.119749 0.0209132 0)
(-0.113875 0.0270694 0)
(-0.104663 0.035 0)
(-0.0893858 0.0439249 0)
(-0.0615302 0.0528133 0)
(-0.0193784 0.0687674 0)
(0.178011 0.124608 0)
(-0.437261 0.223682 0)
(0.358859 -0.417134 0)
(-0.34648 -0.512956 0)
(-0.218543 -0.0271868 0)
(-0.0934559 0.111065 0)
(-0.0539583 0.0925575 0)
(-0.0315568 0.0544291 0)
(-0.0266611 0.0281657 0)
(-0.0315289 0.01139 0)
(-0.040154 0.000570086 0)
(-0.0506108 -0.00638992 0)
(-0.0642992 -0.0104131 0)
(-0.0798906 -0.0123397 0)
(-0.0963485 -0.0134288 0)
(-0.112258 -0.015214 0)
(-0.1264 -0.0181532 0)
(-0.13781 -0.0215504 0)
(-0.145859 -0.024505 0)
(-0.150999 -0.0267265 0)
(-0.154511 -0.0282377 0)
(-0.157308 -0.0290282 0)
(-0.159753 -0.0290622 0)
(-0.161929 -0.0282972 0)
(-0.16383 -0.0267437 0)
(-0.165441 -0.024473 0)
(-0.166766 -0.0215978 0)
(-0.167827 -0.0182165 0)
(-0.168577 -0.0143212 0)
(-0.16879 -0.00970521 0)
(-0.168266 -0.0047468 0)
(-0.167073 -0.000121139 0)
(-0.165236 0.00433624 0)
(-0.162633 0.00893742 0)
(-0.158996 0.0139766 0)
(-0.154343 0.0196872 0)
(-0.149347 0.0260655 0)
(-0.14348 0.0329329 0)
(-0.13008 0.0426621 0)
(-0.0969975 0.0686478 0)
(-0.0721797 0.131797 0)
(-0.558891 0.21877 0)
(0.122379 -0.186338 0)
(-0.388748 -0.298167 0)
(-0.343749 -0.0962955 0)
(-0.265346 0.0518194 0)
(-0.211652 0.0836074 0)
(-0.179554 0.0745555 0)
(-0.163339 0.0610504 0)
(-0.157386 0.0511633 0)
(-0.157447 0.0462094 0)
(-0.160672 0.0459958 0)
(-0.165171 0.0496816 0)
(-0.169498 0.0560671 0)
(-0.172788 0.0637164 0)
(-0.174867 0.0709026 0)
(-0.176143 0.0757502 0)
(-0.177208 0.0761308 0)
(-0.178732 0.0706857 0)
(-0.180926 0.0638224 0)
(-0.18385 0.0574161 0)
(-0.187431 0.0521204 0)
(-0.191495 0.0481882 0)
(-0.195784 0.0457646 0)
(-0.199965 0.0448976 0)
(-0.203673 0.0454924 0)
(-0.206577 0.0472405 0)
(-0.208464 0.0495338 0)
(-0.209261 0.0513707 0)
(-0.20893 0.051273 0)
(-0.207417 0.049232 0)
(-0.204641 0.0468315 0)
(-0.200634 0.0444244 0)
(-0.195271 0.0421507 0)
(-0.188285 0.0401911 0)
(-0.179758 0.0387048 0)
(-0.170421 0.0374019 0)
(-0.158728 0.0350829 0)
(-0.132763 0.0314818 0)
(-0.0671007 0.0355629 0)
(0.1045 0.0779502 0)
(-0.542546 0.11831 0)
(1.14894 -0.0112065 0)
(-0.297658 -0.323738 0)
(-0.353583 -0.233391 0)
(-0.353256 -0.149033 0)
(-0.329546 -0.107785 0)
(-0.298074 -0.0993829 0)
(-0.271076 -0.10176 0)
(-0.251623 -0.107657 0)
(-0.238678 -0.115413 0)
(-0.230051 -0.124858 0)
(-0.223699 -0.136185 0)
(-0.218176 -0.149422 0)
(-0.2128 -0.16399 0)
(-0.207622 -0.178462 0)
(-0.203275 -0.190674 0)
(-0.200845 -0.198442 0)
(-0.201498 -0.200001 0)
(-0.205813 -0.198229 0)
(-0.213176 -0.194107 0)
(-0.222686 -0.188155 0)
(-0.233379 -0.180855 0)
(-0.244304 -0.172797 0)
(-0.254569 -0.164615 0)
(-0.26338 -0.156806 0)
(-0.270064 -0.149576 0)
(-0.274119 -0.142792 0)
(-0.27533 -0.136044 0)
(-0.273912 -0.128801 0)
(-0.27065 -0.12147 0)
(-0.266299 -0.114697 0)
(-0.260961 -0.107975 0)
(-0.254473 -0.100835 0)
(-0.246614 -0.0930814 0)
(-0.237843 -0.0848161 0)
(-0.229781 -0.0764803 0)
(-0.221687 -0.0685855 0)
(-0.199996 -0.0592991 0)
(-0.1445 -0.0377789 0)
(-0.126716 0.0119838 0)
(-0.641164 0.0575161 0)
)
;

boundaryField
{
    floor
    {
        type            noSlip;
    }
    ceiling
    {
        type            noSlip;
    }
    sWall
    {
        type            noSlip;
    }
    nWall
    {
        type            noSlip;
    }
    sideWalls
    {
        type            empty;
    }
    glass1
    {
        type            noSlip;
    }
    glass2
    {
        type            noSlip;
    }
    sun
    {
        type            noSlip;
    }
    Table_master
    {
        type            noSlip;
    }
    Table_slave
    {
        type            noSlip;
    }
    inlet
    {
        type            fixedValue;
        value           uniform (0.5 0 0);
    }
    outlet
    {
        type            zeroGradient;
    }
}


// ************************************************************************* //
