/*--------------------------------*- C++ -*----------------------------------*=========                 |
  \      /  F ield         | OpenFOAM: The Open Source CFD Toolbox
   \    /   O peration     | Website:  https://openfoam.org
    \  /    A nd           | Version:  6
     \/     M anipulation  |
\*---------------------------------------------------------------------------*/
FoamFile
{
    version     2.0;
    format      ascii;
    class       volScalarField;
    location    "670";
    object      PMV;
}
// * * * * * * * * * * * * * * * * * * * * * * * * * * * * * * * * * * * * * //

dimensions      [0 0 0 0 0 0 0];

internalField   nonuniform List<scalar> 
458
(
1.323238770283021
1.077335413191142
1.0442012569912384
1.015256886631419
0.9972465067449843
0.988538491207009
0.9909947180217794
1.0051425567122823
1.034257624873505
1.0821791132305658
1.1526812474487453
1.2234749317570912
1.2392296924912376
1.247822861160038
1.259757406169199
1.3743008684854445
1.3604632283650646
1.3571229719330786
1.3633262635074948
1.3685750600069166
1.3723922833493811
1.3680377934104488
1.3637941521331864
1.3647899563348251
1.3667135889714734
1.3697231528979097
1.3730175338663253
1.3774024761285864
1.3838755350992074
1.395175417272863
1.4034045307008522
1.407698143103639
1.4215324414423547
1.2556270849652431
1.088742536679681
1.0768335492069216
1.0482627119791441
1.031392414766652
1.0229036687185524
1.0239331916512002
1.032233594118217
1.04698132571662
1.0715991057608496
1.1119487968646378
1.1728214738192002
1.2358878394777197
1.2468680767128846
1.2540288852690062
1.2116558170159495
1.2115017610946974
1.2333793333996275
1.3272158688126436
1.3480563005661574
1.3475790968924846
1.3552142305672086
1.358128598149369
1.3572736914178414
1.3573462903143083
1.3589728834298775
1.3597034741113403
1.3599887677931628
1.3604361891404853
1.3617272629194808
1.3628585313869657
1.365981910229896
1.3745994079385544
1.3828892798601762
1.3895689006634764
1.372844264003067
1.2874086273983718
1.07967850395562
1.109495809313577
1.0938085189358946
1.0870102119346872
1.0833615579130975
1.0831943955061687
1.0800531398690305
1.0668838751601462
1.055198577481734
1.065997073539511
1.1147410886710387
1.2067634163945595
1.2535515034365108
1.259757406169199
1.262621623901606
1.264335325568867
1.2438595149290945
1.2382014917185864
1.3021637425682824
1.3119404724855697
1.3203289060213719
1.3310896735362048
1.3351490692603112
1.3576930856998413
1.371915134293029
1.371915134293029
1.3723922833493811
1.3723922833493811
1.3723922833493811
1.3728694312982634
1.3733465781381713
1.37620943580997
1.3795493854942156
1.3720049349471402
1.2993330618348695
1.3616499038035
1.0733217440459075
1.1330956155311738
1.143359399839962
1.1603848346803105
1.1719008909098239
1.1743860806061501
1.150396708801172
1.0936628357421552
1.0405827579449445
1.0280588115768643
1.0729827635805451
1.165791649149882
1.2595866749436928
1.2731235068106073
1.2745555509766877
1.249445135352717
1.225227977893698
1.173947353458899
1.2407961534893142
1.276674353114157
1.3025759310087617
1.3321558075528055
1.3667044774747557
1.3928496689933707
1.3865448931407394
1.380730189924752
1.3794696772769293
1.3805878488612517
1.3830267397070493
1.3895319323494668
1.402676360630471
1.4259054755082312
1.4248884395914119
1.41056049676258
1.3517726647838142
1.254750170522894
1.456331541051438
1.0815601437079707
1.1501001731508587
1.1877839264233259
1.242637232934532
1.2893278772321821
1.298320029942391
1.2269319211445369
1.1162629899126895
1.026574625162349
0.9989821140352771
1.0469456220425282
1.1418376596615634
1.2451578652163149
1.292694117017143
1.294603366970752
1.2840948297697197
1.2551667995245708
1.2540467432589073
1.2697116420455727
1.301101007455413
1.3409683494739577
1.3827809322638638
1.4226246995358622
1.4496747762402278
1.462075671610801
1.4624034512725792
1.4618997245916885
1.460108732175726
1.457138902059832
1.454543825084673
1.4538394814657523
1.4534732855145336
1.4382059979149437
1.4118239515152677
1.336176240984248
1.3367311745923514
1.3334898536124526
1.4181314554228233
1.2964359689223623
1.5533535312699496
1.1116553193611918
1.181301252756356
1.2193324555600007
1.3042198645830378
1.3800265166591164
1.4167621114354962
1.2575636310779967
1.1151941381300623
1.0099707759026475
0.9792025346255915
1.0313292378449517
1.1370691816761895
1.256338983952585
1.3203768193599472
1.3265811303519894
1.3241948762273554
1.3256266316169572
1.3377651124372736
1.358220275791452
1.3918760828224315
1.423440538292966
1.4506286731905822
1.472566784592902
1.4892568136096427
1.5007003596452064
1.5083289046586508
1.5130965443552253
1.5145268058052077
1.5135732997401017
1.5088056756268
1.5021307417241585
1.484721498108486
1.454805672214122
1.41824214268399
1.3474044092539925
1.34113167482837
1.3339530475373762
1.3589732691156573
1.3667374604363915
1.6457146946630483
1.1984471395501783
1.3005906359330728
1.2777944942206296
1.3326450521605786
1.4119916570888429
1.3488990316251952
1.2276903165022646
1.0854539282765217
0.9809367485733003
0.9601163045529136
1.030811997820975
1.1596062497676178
1.3024368397744956
1.3585545168065691
1.3695293724479412
1.3704836804929523
1.37620943580997
1.393862822876264
1.419624324456546
1.4477669661621932
1.4739974279104868
1.4964091313919163
1.5135732997401017
1.5254916704385975
1.5326422114286606
1.5364556831052611
1.5378857077993469
1.5369323596561202
1.533595589201671
1.5269218078120521
1.517864027455386
1.507375358076923
1.4904447252099866
1.4455515226512041
1.3837790522264353
1.354481361263797
1.333439413464144
1.3052342282855363
1.4119908422339105
1.7869084442258385
1.5722693484627936
1.513846664128945
1.3967042157719036
1.3747748174853112
1.364151938118382
1.2935633869922865
1.1528024078260142
1.0039441043120507
0.921551974856425
0.9415858837628158
1.0584757631030701
1.226886916975562
1.367620743181174
1.4086522658659375
1.4205783854603147
1.4253486149115708
1.4353656813730602
1.4549211423484667
1.4782892804582919
1.5011771551958895
1.5212011715387135
1.5359790049039983
1.5459888981948127
1.5521851272953289
1.5545682156479195
1.5550448281720803
1.5536149854478998
1.5512318799794993
1.5469421828510854
1.5407457124351853
1.5321655200865116
1.5216779000415346
1.5097592129093003
1.4964091313919163
1.4816273071492454
1.4722585082568975
1.444800796047052
1.3651285733243343
1.278723078063846
1.995986557909667
1.847950950772046
1.686197225776057
1.5433523037978742
1.4513770964095716
1.3795112297560768
1.1874105208782177
0.9688408652691359
0.8367775475426434
0.8364404429712166
0.9527604381657763
1.1563800088292924
1.3523510868399282
1.4320267223475602
1.46159809617691
1.4744743061581018
1.4830578682072242
1.4949786947853667
1.5116662688116642
1.5288286350160554
1.5440823086675943
1.5559980480595985
1.5622624250101855
1.5574604379294645
1.5521746297857042
1.545278272676592
1.5374655960053552
1.5288083407658513
1.5185332829649736
1.5070549394505834
1.4938762447481186
1.478936124690292
1.4648996976375432
1.4480539002558996
1.4284999973814723
1.410634744528114
1.3991128911060773
1.3948835659776404
1.3849205848298836
1.353295042594846
-1.6597492689761162
-0.7533223584165398
-0.1947038128188915
0.007262306311260621
0.14904714436923333
0.33230225446937556
0.5700532483574349
0.8450636863156957
1.1371565771619156
1.3494879053652438
1.4501517253907592
1.4708482581948632
1.4793494697462057
1.4877561782489617
1.4983236342564004
1.511019212076231
1.5227919026974754
1.5311811068784118
1.5349154934660438
1.5351413958847893
1.5328352270084276
1.527656482657261
1.5214079050241385
1.5139336324079555
1.5052323976437871
1.4965417975694917
1.4878793625357511
1.4799081982568045
1.4741492762783865
1.4702780561243023
1.467488110060343
1.4656251043639728
1.4636600699420816
1.4643349236082304
1.4747977175340257
1.5111240262323853
1.5783053659389952
1.425918375885398
-1.6716084191556642
-0.5857233503919774
-0.009513845679954646
0.313326765617352
0.5204727608160908
0.7778727962979738
1.0448774739084188
1.2764649315376335
1.3726491881265008
1.4157235595480913
1.4439312191580773
1.4606299700452838
1.471857149262172
1.4808738706749491
1.489420509241414
1.4968078493718855
1.5028790734939779
1.5075798609032935
1.5103509384768552
1.5103569868278532
1.5091821917255135
1.5069689702875788
1.5038708193022026
1.5000538553467733
1.4971615083164083
1.4939070778071655
1.491496113247659
1.4903921611711344
1.4905570589383434
1.4932321212307607
1.5000340226977098
1.5116485564135753
1.52393505944536
1.5342687568605267
1.5449421646859596
1.5801255671761572
1.5282708678517887
1.4691207826088941
-1.133617494854422
-1.1322799868731535
-1.009395622601674
-0.2104312589439009
0.37129400199969786
0.7836805463361022
1.0825111263464262
1.2310332626487566
1.3197157988345711
1.3736207581596607
1.4085030925467292
1.4328688863184869
1.4476993579577284
1.4564350937040762
1.4618836823038126
1.4647649514655998
1.4664703108278152
1.4663618351724856
1.4647970579828236
1.4626424912236462
1.4596237987869223
1.4569563522157782
1.454268449363914
1.4516538795038276
1.4497497355910203
1.4492543903427828
1.4494016992914012
1.4510790428036608
1.454815970004488
1.4613582461388568
1.4708158520928534
1.485215386040908
1.509068592827903
1.54965623672607
1.6098419493046656
1.6155586341860115
1.5879963359192637
1.5276744606884505
1.4757720254317543
1.4894535770725577
)
;

boundaryField
{
    ".*"
    {
        type            zeroGradient;
    }
}


// ************************************************************************* //
