/*--------------------------------*- C++ -*----------------------------------*=========                 |
  \      /  F ield         | OpenFOAM: The Open Source CFD Toolbox
   \    /   O peration     | Website:  https://openfoam.org
    \  /    A nd           | Version:  6
     \/     M anipulation  |
\*---------------------------------------------------------------------------*/
FoamFile
{
    version     2.0;
    format      ascii;
    class       volScalarField;
    location    "670";
    object      PPD;
}
// * * * * * * * * * * * * * * * * * * * * * * * * * * * * * * * * * * * * * //

dimensions      [0 0 0 0 0 0 0];

internalField   nonuniform List<scalar> 
458
(
41.46434334195159
29.483787099579786
28.01477503471132
26.764115118914646
26.001660122247884
25.637422017345514
25.73986786002547
26.33442701695766
27.581640699602175
29.70179012367518
32.96473929797675
36.39821713230181
37.181761701419305
37.61191529352919
38.2124933276433
44.14118296459406
43.4110317538067
43.23528358969787
43.561828928594124
43.83865765085594
44.04028059454936
43.81029957759195
43.58648654051061
43.63897793241382
43.74042646339913
43.899273007829365
44.0733293771591
44.30528701673248
44.64827892958235
45.2486172100994
45.68702288372554
45.9161522342893
46.65613588219681
38.00423414427783
29.998495754461302
29.46124632064756
28.192723620419258
27.457507291721186
27.0915156075485
27.1357612829497
27.493919543394227
28.13651638059224
29.226672890078817
31.05939580656606
33.92633422549197
37.015001679383026
37.564025877203186
37.92376562443476
35.81486407073213
35.807286118584884
36.890021549512184
41.671033234467394
42.75926290823151
42.73425085307642
43.13494508477748
43.28817372666447
43.24320940388068
43.24702727394044
43.33259230104154
43.37103960876011
43.38605576667738
43.409608279526715
43.477591076542026
43.537183407632845
43.70183162016907
44.15697154960815
44.59597602298006
44.95050857011729
44.064170216942145
39.61752717275532
29.589141573008476
30.946392723470467
30.228525758367738
29.920039444616634
29.755133248582595
29.747589170839106
29.60600444918836
29.016193984930652
28.497990422715034
28.97669677469905
31.188274886271245
35.57453621872348
37.899742315301786
38.2124933276433
38.357164840720664
38.44382169970401
37.41327954246041
37.13042243604862
40.374634383590084
40.8789675849495
41.31332422381696
41.87266438930039
42.08427840234541
43.26526604843124
44.01506441919217
44.01506441919217
44.04028059454936
44.04028059454936
44.04028059454936
44.06550054559678
44.09072426350661
44.24214518024966
44.418971355565525
44.01980987359811
40.229006422695576
43.47351682177721
29.303763897084238
32.04185617763409
32.523961347426095
33.331063556476025
33.88210886883199
34.001557919833985
32.85646177485572
30.221898431163282
27.856739067204273
27.31346158357198
29.288585684311442
33.58927271423437
38.20387619179721
38.8893517046948
38.962129748235284
37.69333829850696
36.48507058729075
33.98045715636155
37.26003065204324
39.06990024544611
40.395854806065444
41.928209559390204
43.7399457900231
45.12489496616971
44.78991724684661
44.48152997298838
44.41474925684361
44.473987594233776
44.60326483714402
44.94854449320647
45.64818992500563
46.890564192727695
46.836021828651006
46.06904537362105
42.95419719007063
37.96007391457606
48.52779476619786
29.67388621554187
32.84241930332247
34.64871870647535
37.352103668663744
39.71572545943863
40.17693321320082
36.56957175726933
31.25862822396722
27.249461579300856
26.07460203055804
28.134951112051
32.452269191859216
37.47830546493824
39.88816404512089
39.986082338812466
39.448178640799085
37.981052352760386
37.92466440569385
38.71615749270459
40.31993969956427
42.388200571960695
44.5902311000758
46.71466674060529
48.168737744874726
48.837972810746294
48.8556819541519
48.828467226294634
48.73172472299223
48.57137256555093
48.431324338634134
48.39332452481574
48.373569953555155
47.551213887338776
46.13656885364599
42.137876078152686
42.16684107612919
41.99774481301998
46.47398519477374
40.080147560299274
53.79613943468014
31.045865401721755
34.334913257403215
36.19331661144641
40.480525734738166
44.444246879817
46.40068804347594
38.10182509076964
31.209210060191296
26.539065258035222
25.250143107509416
27.4547735949117
32.2280978441388
38.04009877691341
41.315809454168026
41.63802415823657
41.514002550652386
41.58840167410507
42.22082401910616
43.29299634698615
45.0731276620521
46.75839497773005
48.22016222999348
49.40525613896296
50.30956443109479
50.93071641828904
51.345213780790516
51.604413473244875
51.682192279351774
51.63033881038954
51.371129204505415
51.008412322338415
50.0636257078077
48.44545241993885
46.4799110462732
42.72509588096029
42.39674002878228
42.02189641935146
43.332612595222514
43.741685799820324
58.818511357941354
35.16758429376459
40.293681869529784
39.12691849668382
41.953706620164056
46.145533265798775
42.80344406907563
36.607207184923304
29.84964449857476
25.321829185278602
24.468885054463385
27.432397890696834
33.29395583880435
40.388693643819444
43.310580074910504
43.889040486115434
43.9394386353866
44.24214518024966
45.17878142788797
46.55392217786147
48.06591613640486
49.48268778476022
50.69769517852381
51.63033881038954
52.27874937065779
52.668009220113824
52.87566470244009
52.95354302952814
52.90162372023232
52.71992016825105
52.356590267224256
51.86370768643787
51.2933860864576
50.37400516086295
47.94656251670804
44.643161583336315
43.09643728242865
41.99511504749389
40.532800348420004
46.14548970821054
66.33147904025904
54.8267555287204
51.645204470818165
45.32998852943391
44.16624896785993
43.60534436047873
39.932735350244286
32.97048638038612
26.28376820903506
22.934011356294434
23.72401077696115
28.642830421118475
36.56733891376138
43.78829019983912
45.96710428389682
46.605023318555475
46.860698862434
47.39850510130702
48.451682878596735
49.71507740457477
50.95661385585008
52.04526437459524
52.84970612312362
53.39491448484382
53.7324812805795
53.86232010394609
53.88828803145213
53.81038438017845
53.68054632767029
53.44684589174146
53.109310395950416
52.642054523476055
52.07120420821366
51.4229631539243
50.69769517852381
49.89591954621594
49.38857330368731
47.90613011420346
43.65683124778512
39.17420869245083
76.56897557189508
69.45813464980601
61.00194293727091
53.25128956228097
48.26051616860356
44.41695025502434
34.63060949295709
24.824251750839082
19.771419746088412
19.75943614598735
24.171580794444267
33.14039285543069
42.984560179922056
47.21910645061629
48.81217233592408
49.50850189310489
49.97344772876032
50.62004450218425
51.52664317425348
52.46038712901179
53.29105450768651
53.94022396502369
54.281543225086224
54.01990265864402
53.73190934959534
53.356203077724025
52.93066350463285
52.45928236553735
51.900114869672514
51.27597154540785
50.56020711339122
49.750114432881304
48.99058025248191
48.081378054328425
47.0297629833722
46.07301283318272
45.45826221482239
45.233087202013635
44.70371670223783
43.03412428793745
59.577357925249075
16.950970901298973
5.786050807757192
5.001091769573776
5.4603144362614415
7.2964429476812995
11.80675508211094
20.067471974096392
32.23219981972123
42.834324346095435
48.19444885543692
49.31226560335664
49.772505408255434
50.22817297924021
50.8016426382618
51.49146300694824
52.131822797131726
52.58845757027401
52.791792182138686
52.80409355876053
52.67851862835443
52.396580445141474
52.056513088048476
51.64993390924372
51.176927646766444
50.70489754389488
50.234853668078614
49.80277390805151
49.49090735588793
49.281417087002744
49.13051818009121
49.0297920944778
48.92358313887488
48.96005466887881
49.52600966616521
51.497161569140026
55.15557067928198
46.89125610630814
60.21709092569932
12.189714187185828
5.001873677326472
7.0406802545829805
10.665188646327678
17.750006887945418
28.04436127041012
39.059243448005866
44.0538589801367
46.345113723848264
47.85930428138941
48.75987689879866
49.366854342759716
49.855093729956415
50.3184438782982
50.71934165494933
51.049064968833385
51.30450095243888
51.455131366968054
51.455460184578484
51.39159595491291
51.271299267016296
51.10294565569787
50.8956032155547
50.73854267266009
50.56188052733146
50.43104770404116
50.37115351633731
50.38009942413744
50.52524973914429
50.89452609456368
51.52568013345541
52.19403248034399
52.75657524124285
53.337893814744724
55.25471580476695
52.43002427008383
49.21881589219341
32.066287579303335
32.00369081901971
26.51464204333614
5.918417466893089
7.869993752350055
17.942787086326305
29.716763179413377
36.77328705374549
41.28152702562501
44.105220144250275
45.95913729867553
47.264342666841365
48.06227308211897
48.533383729957045
48.8276005516327
48.98329706973861
49.07548560869169
49.06962084917409
48.9850324484754
48.868597327572964
48.705535650388356
48.5615187750161
48.41646704710474
48.275441371996855
48.17277845686548
48.14607776001272
48.15401791970445
48.24444484862192
48.44600805574195
48.79921550342082
49.31051232647509
50.09040101095453
51.38542084599669
53.594703766224896
56.8720339120542
57.18275782120426
55.683351590991435
52.39755905560644
49.57875860401717
50.320237619793495
)
;

boundaryField
{
    ".*"
    {
        type            zeroGradient;
    }
}


// ************************************************************************* //
