/*--------------------------------*- C++ -*----------------------------------*\
  =========                 |
  \\      /  F ield         | OpenFOAM: The Open Source CFD Toolbox
   \\    /   O peration     | Website:  https://openfoam.org
    \\  /    A nd           | Version:  6
     \\/     M anipulation  |
\*---------------------------------------------------------------------------*/
FoamFile
{
    version     2.0;
    format      ascii;
    class       volScalarField;
    location    "41599.9999994879108";
    object      nut;
}
// * * * * * * * * * * * * * * * * * * * * * * * * * * * * * * * * * * * * * //

dimensions      [0 2 -1 0 0 0 0];

internalField   nonuniform List<scalar> 
778
(
0.000894312
0.000953044
0.000949542
0.000990732
0.00102849
0.00106278
0.00109471
0.00112551
0.00115652
0.00118948
0.00122093
0.00125081
0.00128024
0.00131188
0.00134488
0.000632347
0.000905471
0.000912869
0.000890844
0.000853924
0.00080453
0.000755277
0.000709905
0.000669018
0.000632377
0.000599736
0.00057042
0.000543713
0.000518783
0.000494517
0.000469142
0.000448055
0.000405566
0.00131079
0.00258108
0.00226501
0.00261432
0.0028677
0.00313631
0.00340427
0.00365125
0.00385014
0.00396604
0.00403421
0.00400631
0.00380659
0.00331161
0.00241856
0.00147251
0.00140391
0.00134381
0.00113086
0.00192656
0.00267073
0.00311056
0.00313138
0.002471
0.00211332
0.00186546
0.00167728
0.00152753
0.00139978
0.0012869
0.0011819
0.00107919
0.000987024
0.000907557
0.00102194
0.000514142
0.00166406
0.00360432
0.00267218
0.00382231
0.00427092
0.0046505
0.00499524
0.0052987
0.0055559
0.00575772
0.00595319
0.00615887
0.00634783
0.00646014
0.00638521
0.0058459
0.0042751
0.00164824
0.00142675
0.00305196
0.00425929
0.004831
0.00439396
0.00115959
0.00100841
0.000891754
0.000800441
0.000727747
0.000669058
0.000621182
0.000582245
0.000551893
0.000606712
0.00071361
0.00112932
0.000584853
0.0020053
0.00485833
0.00255719
0.00429817
0.00496256
0.00531802
0.0055794
0.0057728
0.00591724
0.00603445
0.00620091
0.00648205
0.00689213
0.00740751
0.00792518
0.00817952
0.00767939
0.00572695
0.00164148
0.00380258
0.00565494
0.00659592
0.00682853
0.00583006
0.00132017
0.00120086
0.00110853
0.00103174
0.000966274
0.000907464
0.000852006
0.000796927
0.000737452
0.00068896
0.000713963
0.00122189
0.000643956
0.00234205
0.006433
0.00258019
0.00408628
0.00510797
0.00541128
0.00552154
0.00552603
0.00547141
0.00542311
0.00549291
0.00576611
0.00626719
0.00697638
0.00779844
0.00855528
0.00903514
0.00902897
0.00810315
0.00824473
0.00843283
0.00845881
0.00828694
0.00775715
0.00617379
0.00533344
0.00475782
0.00429003
0.00383125
0.00338684
0.00295203
0.00251768
0.00207133
0.00159123
0.00121456
0.00121201
0.000959232
0.000767432
0.00100585
0.000966462
0.00267369
0.00819619
0.00303787
0.00344611
0.00489453
0.00523123
0.00520473
0.00501782
0.00475041
0.00452979
0.00452502
0.00481124
0.00538227
0.00620465
0.00716669
0.00812708
0.00894469
0.00946678
0.00956144
0.00946474
0.00929596
0.00905723
0.00875106
0.00836196
0.00779421
0.00724724
0.0067506
0.00627036
0.00575193
0.00519833
0.00460695
0.00397265
0.00329137
0.00256867
0.00191511
0.00143811
0.00111625
0.00124763
0.0021602
0.00115764
0.00301224
0.00982768
0.00404865
0.00282345
0.00439812
0.00494858
0.00488803
0.00458539
0.00414608
0.00375934
0.00374812
0.0041093
0.00476283
0.00568188
0.0067275
0.00776201
0.00865216
0.00928961
0.00958256
0.00955911
0.00934832
0.00902967
0.00866527
0.00830211
0.00795105
0.00762896
0.00732644
0.00700351
0.00661364
0.00614439
0.00558867
0.00494368
0.00421197
0.00341275
0.00263287
0.0019061
0.00140401
0.00125153
0.00218838
0.00136173
0.00330359
0.0110646
0.00552111
0.00268879
0.00348414
0.00438695
0.0045133
0.00426467
0.00374527
0.00321919
0.00333847
0.00381603
0.00454655
0.00549351
0.00657913
0.00766208
0.00858578
0.00922759
0.00951899
0.00948047
0.0092086
0.00880793
0.00837725
0.00799553
0.00770137
0.00749123
0.00732743
0.00714946
0.00690203
0.00655571
0.00609667
0.00552197
0.00483729
0.004064
0.00326252
0.00245502
0.00172777
0.00114193
0.00311832
0.00177155
0.00339337
0.0104837
0.00683721
0.0034776
0.00236278
0.00289504
0.00338771
0.00342963
0.00302856
0.00294432
0.00325037
0.00381176
0.00460099
0.0056044
0.00674159
0.00785772
0.00877839
0.00937112
0.00957946
0.00943626
0.0090425
0.00852595
0.00801361
0.00760505
0.00734577
0.00721837
0.00716055
0.00709207
0.00694985
0.00669982
0.0063283
0.00583367
0.0052226
0.00451325
0.00373822
0.00287214
0.00172422
0.0013844
0.00466912
0.00202413
0.00332468
0.00845801
0.00706646
0.00477638
0.00315365
0.00244174
0.00231251
0.00242112
0.00262505
0.00294956
0.0034091
0.00404028
0.00489754
0.00597819
0.0071764
0.00830804
0.00918098
0.00966249
0.00971349
0.00939083
0.00882182
0.00816667
0.00758209
0.00718186
0.0069985
0.00697675
0.00701602
0.00701496
0.00692262
0.00671982
0.00639987
0.00596217
0.00541108
0.00475313
0.00395636
0.00276848
0.00134111
0.00240327
0.00478717
0.0020597
0.00311438
0.00723093
0.00683516
0.00546866
0.00420753
0.00338706
0.00298159
0.00289024
0.00305872
0.00336811
0.00381665
0.00448162
0.00542671
0.00660999
0.00786822
0.00897577
0.00972879
0.0100103
0.00981491
0.00924016
0.00845809
0.00767477
0.0070802
0.00678218
0.00674749
0.0068443
0.00694204
0.00694349
0.00684589
0.00664897
0.00634826
0.00593908
0.00541821
0.00476639
0.00380544
0.0021417
0.00150004
0.0029748
0.00452472
0.00203465
0.00283599
0.00652055
0.00659508
0.00579087
0.00492509
0.00427397
0.00389102
0.00375453
0.00378948
0.00397598
0.00438672
0.00512796
0.0062188
0.00752783
0.00881201
0.00980886
0.0103246
0.0102848
0.00974196
0.00885526
0.00786478
0.00703813
0.00657192
0.00647714
0.00655643
0.0066835
0.00676884
0.00674488
0.00663214
0.00643319
0.00614001
0.00574052
0.00521895
0.00452018
0.00320986
0.00154692
0.00190332
0.00322407
0.00416821
0.00196729
0.00258632
0.00583248
0.00629783
0.00591744
0.00536159
0.00489507
0.0045852
0.00443408
0.00438903
0.00454741
0.0050677
0.00603486
0.00735319
0.0087688
0.00996929
0.0106928
0.0108003
0.0102954
0.00931951
0.00811911
0.00703297
0.00633899
0.00603363
0.00599032
0.00606895
0.00618065
0.00625837
0.00624107
0.00613224
0.00593354
0.00563358
0.00521628
0.00466311
0.00389844
0.00261049
0.00152487
0.00208233
0.00335952
0.00427455
0.00192304
0.00259435
0.0057882
0.0064346
0.00598945
0.00553949
0.00517126
0.00490589
0.00473333
0.00472501
0.00510952
0.00602709
0.00739639
0.0089408
0.0103066
0.0111816
0.0113803
0.0108785
0.00978896
0.00838632
0.00703082
0.00605209
0.00547598
0.00519448
0.0051084
0.00514018
0.00522534
0.005303
0.00530345
0.00519441
0.00497379
0.00462621
0.0041465
0.00355891
0.00290268
0.00217454
0.0016325
0.002129
0.00350054
0.00461014
0.00203104
0.00234171
0.00243518
0.00359198
0.00421909
0.00441225
0.00441434
0.00437049
0.00445013
0.00498774
0.00613251
0.00773887
0.00946898
0.0109477
0.0118648
0.012038
0.0114308
0.0101879
0.00853908
0.00696608
0.00574081
0.0049156
0.00442687
0.0041787
0.00407108
0.00403974
0.00404882
0.00406415
0.00402651
0.00387331
0.00359629
0.00319718
0.00273078
0.00230446
0.00201052
0.00186816
0.00188496
0.00239167
0.00390185
0.0046559
0.00208372
0.000807838
0.00146579
0.0022618
0.00290173
0.00364206
0.00489974
0.00674649
0.00879057
0.010645
0.0120259
0.0127438
0.0126781
0.0118354
0.0103023
0.00847663
0.00674531
0.00537314
0.00444418
0.0039165
0.003636
0.00347007
0.00335257
0.0032584
0.00317733
0.00309728
0.00299065
0.00281471
0.00256683
0.00228582
0.00205375
0.00194493
0.00197653
0.00213106
0.00242789
0.00302961
0.0045775
0.00497171
0.00210973
0.00149708
0.0020765
0.003031
0.00473813
0.00705872
0.00938303
0.011188
0.0124866
0.013265
0.0134744
0.013023
0.0118196
0.0100517
0.00806635
0.0062582
0.00490302
0.00409284
0.00367909
0.00345684
0.00330912
0.00319338
0.0030982
0.00302023
0.00295454
0.00289018
0.00280779
0.00268999
0.00254811
0.00241773
0.00235148
0.00238993
0.0025377
0.00277874
0.00312064
0.00363671
0.00458092
0.00520383
0.00205159
0.00275767
0.00666445
0.00612031
0.0054738
0.00696971
0.00931324
0.0112973
0.0126381
0.0133424
0.0135133
0.0132341
0.0124775
0.0112098
0.0094951
0.00758972
0.005877
0.00469137
0.00405207
0.00372382
0.00351864
0.00335998
0.00323031
0.00313275
0.00307309
0.00305205
0.00306187
0.00308537
0.00309716
0.00308059
0.00305733
0.00305101
0.00308487
0.00317691
0.00332978
0.00352611
0.00373598
0.00392308
0.00403255
0.00398151
0.00198907
0.00263916
0.00509845
0.00658169
0.00840406
0.00933768
0.0103116
0.0108859
0.0110316
0.0108235
0.0103151
0.00952823
0.00847906
0.00723959
0.0059812
0.00494108
0.00425179
0.00382597
0.00355297
0.00334866
0.00317745
0.0030353
0.00293167
0.0028788
0.00288531
0.00295168
0.00306703
0.00320695
0.00333317
0.00341118
0.00347009
0.00353891
0.00363662
0.00377371
0.0039532
0.00417208
0.00442077
0.00467483
0.00488987
0.00452625
0.0020614
0.00247388
0.00211936
0.0021086
0.00216953
0.00221978
0.00215251
0.00202176
0.00186856
0.00171477
0.00156942
0.00143579
0.00131696
0.0012179
0.00114417
0.00109758
0.0010737
0.00106723
0.00106842
0.00107482
0.00108675
0.00110497
0.00112964
0.00115976
0.00119347
0.00122861
0.00126344
0.00129709
0.00132985
0.00136268
0.00139614
0.00143262
0.00147449
0.00152345
0.00158035
0.00164465
0.00171351
0.00178251
0.00185639
0.00196661
0.00198923
)
;

boundaryField
{
    floor
    {
        type            nutkWallFunction;
        Cmu             0.09;
        kappa           0.41;
        E               9.8;
        value           nonuniform List<scalar> 
36
(
0.000160578
7.63792e-05
0.000109534
0.000110414
0.000107792
0.00010338
9.74413e-05
9.1477e-05
8.59419e-05
8.09177e-05
7.63838e-05
7.23181e-05
6.86435e-05
6.52757e-05
6.21135e-05
5.90175e-05
5.57596e-05
5.30354e-05
4.7496e-05
4.74959e-05
6.15225e-05
7.04552e-05
7.78202e-05
9.29536e-05
0.000121398
0.000116766
0.000160578
0.000175022
0.000167275
0.000160455
7.63792e-05
0.000160455
0.000135999
0.000194687
0.000169858
0.000193934
)
;
    }
    ceiling
    {
        type            nutkWallFunction;
        Cmu             0.09;
        kappa           0.41;
        E               9.8;
        value           nonuniform List<scalar> 
43
(
0.000284338
0.000246291
0.000245129
0.000251722
0.000257148
0.000249909
0.000235747
0.000219016
0.000202061
0.000185878
0.000170852
0.00015736
0.000146014
0.000137511
0.000132116
0.000129346
0.000128597
0.000128738
0.000129483
0.000130865
0.000132975
0.00013583
0.000139319
0.000143219
0.00014728
0.000151298
0.000155172
0.000158928
0.000162682
0.000166492
0.000170626
0.000175353
0.000180864
0.000187247
0.000194438
0.000202118
0.000209784
0.000217912
0.000229901
0.000232478
0.000270426
0.000280414
0.000177578
)
;
    }
    sWall
    {
        type            nutkWallFunction;
        Cmu             0.09;
        kappa           0.41;
        E               9.8;
        value           nonuniform List<scalar> 9(0.000373892 0.000352075 0.000322961 0.0002966 0.00029745 0.000270516 0.000314411 0.000301932 0.000284439);
    }
    nWall
    {
        type            nutkWallFunction;
        Cmu             0.09;
        kappa           0.41;
        E               9.8;
        value           nonuniform List<scalar> 
14
(
0.000116773
0.000139121
0.000162513
0.000239928
0.000237176
0.000229831
0.000225075
0.000237035
0.000242596
0.000245416
0.000238853
0.000232242
0.000240515
0.000232514
)
;
    }
    sideWalls
    {
        type            empty;
    }
    glass1
    {
        type            nutkWallFunction;
        Cmu             0.09;
        kappa           0.41;
        E               9.8;
        value           nonuniform List<scalar> 9(0.000108248 0.000156884 0.00019674 0.000234354 0.000270799 0.000306149 0.000341765 0.000372084 0.000381381);
    }
    glass2
    {
        type            nutkWallFunction;
        Cmu             0.09;
        kappa           0.41;
        E               9.8;
        value           nonuniform List<scalar> 2(0.000208477 0.000236209);
    }
    sun
    {
        type            nutkWallFunction;
        Cmu             0.09;
        kappa           0.41;
        E               9.8;
        value           nonuniform List<scalar> 
14
(
0.000108207
0.000115178
0.000114764
0.000119626
0.000124063
0.000128076
0.0001318
0.00013538
0.000138973
0.000142781
0.000146403
0.000149834
0.000153204
0.000156818
)
;
    }
    Table_master
    {
        type            nutkWallFunction;
        Cmu             0.09;
        kappa           0.41;
        E               9.8;
        value           nonuniform List<scalar> 9(0.00013932 0.000121701 0.000107898 9.69473e-05 8.81252e-05 8.09262e-05 7.49978e-05 7.01355e-05 6.63178e-05);
    }
    Table_slave
    {
        type            nutkWallFunction;
        Cmu             0.09;
        kappa           0.41;
        E               9.8;
        value           nonuniform List<scalar> 9(0.000157752 0.000144082 0.000133399 0.000124437 0.000116737 0.000109768 0.000103148 9.65231e-05 8.93089e-05);
    }
    inlet
    {
        type            calculated;
        value           uniform 0.000167705;
    }
    outlet
    {
        type            calculated;
        value           nonuniform List<scalar> 2(0.00275767 0.00666445);
    }
}


// ************************************************************************* //
