/*--------------------------------*- C++ -*----------------------------------*=========                 |
  \      /  F ield         | OpenFOAM: The Open Source CFD Toolbox
   \    /   O peration     | Website:  https://openfoam.org
    \  /    A nd           | Version:  6
     \/     M anipulation  |
\*---------------------------------------------------------------------------*/
FoamFile
{
    version     2.0;
    format      ascii;
    class       volScalarField;
    location    "250";
    object      PMV;
}
// * * * * * * * * * * * * * * * * * * * * * * * * * * * * * * * * * * * * * //

dimensions      [0 0 0 0 0 0 0];

internalField   nonuniform List<scalar> 
458
(
1.3109771089617512
1.0632750185855349
1.0276342341822273
0.9996747403446311
0.9826536998176296
0.9767315074572644
0.9836067088140688
1.0040269540486024
1.042244103723185
1.10228160258024
1.1829197046568993
1.231256208943525
1.2431999908651623
1.2503660396058343
1.2613536487151467
1.4098779529869754
1.3946003787251546
1.3903033446568402
1.3988973187382203
1.4065360876567388
1.4117875637701918
1.40481690884764
1.4015276162161012
1.4027321606303373
1.4058806707394937
1.4096514005015808
1.4141239924062519
1.4196938376018216
1.4273512855040684
1.4398252625779648
1.4602109651210473
1.4681119280215378
1.485769075370331
1.2400487267258886
1.076737527631205
1.0625031172773929
1.034554071657942
1.0187988742444931
1.0130493771825908
1.0172317733139888
1.0282178160642903
1.046833953137589
1.0777821635154392
1.1274366659527524
1.2077315521860266
1.2441554737242193
1.2527546848688493
1.2159725777725374
1.1884045815564586
1.2039943088724971
1.2403983057292587
1.3772545281318485
1.3774116886847827
1.3774116886847827
1.3883935218242933
1.3898746250119471
1.3916747535268164
1.3940709883289675
1.3968564936992383
1.399294504228816
1.4013700079707025
1.4041006826734044
1.407133597865852
1.4105068866522463
1.4154200449962784
1.4262127119703196
1.4432932652182997
1.4537939151513757
1.448458889831705
1.265711350832224
1.0695508770420408
1.0970914840106682
1.0839809848828221
1.078400415832044
1.075920069727262
1.076779513807175
1.0679160404214196
1.0495932516605029
1.0422697337711844
1.070215731339616
1.145053614882559
1.2332878647207728
1.2637422049246496
1.25351455915204
1.2379337168505324
1.2396641299190012
1.2410449840507403
1.2784173484304444
1.3244799049410205
1.3299429653465207
1.3435979872850645
1.3608551597017768
1.367765051862896
1.39257502961516
1.4122251769413063
1.4170388929678575
1.4194258116808154
1.4222900732627066
1.42515428994824
1.4280184614110623
1.4313599371911876
1.4370880356395312
1.4432932652182997
1.4412691023278186
1.3775397151026012
1.3357860559480532
1.0641683993331397
1.1226673844631527
1.1385794295027387
1.158499682314244
1.1703359868602172
1.1674020025787066
1.1212945745823635
1.052225441260905
1.0084762873973556
1.0260131684205889
1.104006414941874
1.1989569427353448
1.2742497701403759
1.2866713145205633
1.2633808211736874
1.2263365370207442
1.2010863069600586
1.165498024410512
1.2283008522137744
1.2723634410759774
1.3098254671615484
1.3530058987399496
1.3983382572985015
1.433308876350356
1.4366035092943064
1.4391447739788987
1.445747324901493
1.4540115042103376
1.4646190872751343
1.4779413089163191
1.4967045283802283
1.5252472073784213
1.512489587934227
1.4848146851891555
1.429487456707551
1.336091818666624
1.4271467425004418
1.0739692764616413
1.1428168172646687
1.188530565202595
1.2534182565863454
1.3032860578871166
1.278768578358539
1.1668110901312228
1.0495433333409188
0.9806099101824982
0.996173169035226
1.0779587393738879
1.185362367902363
1.281565598364043
1.3148523056444572
1.3077899276397424
1.2666895917391017
1.2394947443326263
1.2442647084344787
1.2683010612159848
1.3100224252585488
1.3628036648738469
1.4183660734372743
1.47201418276999
1.5156868579020482
1.5350533962621848
1.546498978535275
1.5555692931486307
1.5618282436316053
1.5648070614968528
1.5667014415618101
1.5677533122886689
1.5661901308844908
1.5428614325171692
1.5039852566799847
1.4227922693305335
1.4128419660538798
1.4350988593879055
1.5278725565336082
1.4084783691984666
1.5228441849390357
1.1058399677545003
1.178206418255236
1.2260987752713488
1.3300452623769714
1.389825890667216
1.3235345799385507
1.1684563810650312
1.0316854623182214
0.9575147459364309
0.9757889262735163
1.0696514183648265
1.1973151550429584
1.316879695236189
1.354491210244469
1.354491210244469
1.348760709567289
1.3332744922851718
1.343295539801314
1.374285004416549
1.4215573609373895
1.4771632562878632
1.5220314661820709
1.5549459984624188
1.5811750342513056
1.5997715231890832
1.6135978366733978
1.6226555772743347
1.6274225243395144
1.6274225243395144
1.6231322808792876
1.615981520824886
1.6040626192079661
1.5702335564888774
1.5236186197917667
1.4446030713536375
1.4301022801165373
1.4312852378348555
1.459292326736809
1.471317214396033
1.6165834015137357
1.1946142148512104
1.3049578352805133
1.2966886809859663
1.365144884384732
1.3791034589483535
1.2742945439448137
1.1276118033273683
0.9892883369618695
0.9240005318149059
0.964313116428897
1.0866094324371847
1.2459906868825517
1.3831414150723789
1.4094005472669262
1.4127423618827
1.410355357498873
1.4179936641552688
1.4432932652182997
1.4800426473880455
1.5196460554500446
1.5582847104131012
1.591665705816038
1.6183651564057069
1.6379091046265
1.6507776510032544
1.659355838531349
1.6636446747907079
1.664597725981531
1.6612620093254926
1.6531605492602863
1.6421987867841312
1.628375889936595
1.6093070835776278
1.5618498096523896
1.4923719277814596
1.4567001804088773
1.4357350333913719
1.41051412262155
1.5125907501786682
1.7562471759758602
1.5619989450090592
1.508346884277072
1.4005476331725775
1.3766703846191033
1.3307382822600042
1.2025553869984817
1.029309233851329
0.8996078024960362
0.876731602131818
0.9742264354808592
1.1506526334483016
1.3571750782851961
1.4523620464063531
1.4795654356812933
1.4848146851891555
1.4886322109206822
1.5034242294810944
1.532526800349024
1.5678234218652791
1.6012019054936673
1.6307592690013786
1.654113693886099
1.6707923485018317
1.681751161609255
1.6879447544887913
1.6898503990112912
1.689373991266874
1.6865154974386891
1.6807982676806845
1.6731747979711973
1.6622150819276706
1.6493478869704723
1.6321892724103655
1.612644349467469
1.591665705816038
1.579744420033625
1.5543193906072514
1.479701191151285
1.391301056795361
1.9652947540268437
1.8240893828800273
1.668508698678168
1.5346350276643754
1.4403052436390438
1.2746254048793368
1.0072144667870853
0.8025065508671728
0.7456666882213522
0.841486734228396
1.0590250703865125
1.317918704439095
1.4800426473880455
1.5358660612048536
1.5554229624384779
1.5635310875987671
1.574023209274004
1.5926193592465103
1.6188418776719797
1.6460116981056538
1.6688863497513118
1.6821783327475766
1.686047455641386
1.6861154340911313
1.6843217472259253
1.6798850257844815
1.6731857120983349
1.6644307279571982
1.6535912164522277
1.6401243138770105
1.625171003347549
1.608483671093787
1.5914418433756254
1.5724698283003602
1.5508574809255002
1.5325495153930542
1.5207342845478469
1.5171989387080822
1.5072732690159354
1.4796973760961405
-1.7997959714275353
-1.0118528171682986
-0.5722823941386014
-0.36290087820765093
-0.09110230349994262
0.2587936526596217
0.6371536153057661
1.017654277207298
1.3396871158629933
1.5111822737380494
1.5451589718740633
1.5622974623220576
1.5731117034852802
1.5856688980987468
1.6023294101713923
1.6220507737406198
1.6425545254520773
1.6590970588673972
1.668744901636875
1.672530730260472
1.6720479181648473
1.668409545646097
1.66266420648459
1.6553359541088504
1.6465736333958727
1.6377631561624375
1.628611181694152
1.6200118388172868
1.6123563537390022
1.6061150120114196
1.60069191226543
1.595782141802956
1.5921486775851859
1.592004568070034
1.6023334802576075
1.640672698144044
1.7200337148749474
1.5739196671430689
-1.79397190749847
-0.7461419962586976
-0.09172409098697624
0.2650870357215884
0.622369424695404
1.022901089875357
1.2914479698192267
1.4118304830169042
1.495505234561865
1.5451467361923348
1.571804116487176
1.5887204357260254
1.6022832606157762
1.6154311532438708
1.6285587176837248
1.6419536985944518
1.653303121377688
1.6614365826850634
1.665501930627253
1.6668210567225137
1.6652592892663036
1.662986266264386
1.6594245010295698
1.6549823531379633
1.6501933824696495
1.6456586477309267
1.6410908275640936
1.6374459007241422
1.6346348103228134
1.634653049406915
1.6385106102925031
1.6471927885034516
1.6561461631092718
1.664829543161677
1.6749531573277174
1.7130075723705767
1.6589520489879475
1.612506701642173
-1.076851711001412
-1.081477927040407
-0.9579612308104635
-0.08236474908287811
0.5825525505678497
1.0476390695229372
1.3080414181153432
1.4315899110389925
1.5047546695752394
1.5507920976770415
1.5834056310672109
1.6057158645567258
1.6217750958597996
1.6338451071494453
1.6437399940720552
1.6516368847848955
1.6588844702018695
1.6630351846350573
1.664697162897926
1.6629451099279249
1.6589341766333647
1.6535779353075202
1.6481015781946142
1.6427301842953081
1.6384871677503559
1.6344197724538259
1.6316825666283565
1.6300388552404206
1.6299390974333854
1.632021451677195
1.6370042051826532
1.6469519494082685
1.6661740997434906
1.7032494064544665
1.7331937624386264
1.7370032169155811
1.7053595103620862
1.6597863167954006
1.6181109839976213
1.6305110923594943
)
;

boundaryField
{
    ".*"
    {
        type            zeroGradient;
    }
}


// ************************************************************************* //
