/*--------------------------------*- C++ -*----------------------------------*=========                 |
  \      /  F ield         | OpenFOAM: The Open Source CFD Toolbox
   \    /   O peration     | Website:  https://openfoam.org
    \  /    A nd           | Version:  6
     \/     M anipulation  |
\*---------------------------------------------------------------------------*/
FoamFile
{
    version     2.0;
    format      ascii;
    class       volScalarField;
    location    "250";
    object      PPD;
}
// * * * * * * * * * * * * * * * * * * * * * * * * * * * * * * * * * * * * * //

dimensions      [0 0 0 0 0 0 0];

internalField   nonuniform List<scalar> 
458
(
40.829180140939
28.85563373230731
27.295144951018344
26.103742771313165
25.392915793104365
25.148200275843138
25.432421986786807
26.28726853760054
27.929238231174168
30.615225776387447
34.41314018310169
36.78437392359897
37.38026514641411
37.739589305193576
38.29309415449983
46.03257691108727
45.21801944738706
44.989532963912154
45.446778455206
45.85411331103512
46.134623859947844
45.76236591390237
45.586943431725786
45.65116544313725
45.8191307674065
46.020473577529664
46.25954672626513
46.55764502440941
46.96812320830844
47.63831418501575
48.737246146940656
49.16425259347003
50.12042040953308
37.22267704737892
29.456934601648655
28.82135148711032
27.594501290682587
26.915496024772523
26.670005666101417
26.848461972073807
27.320322887648913
28.13005578458187
29.503859916542524
31.777505613881658
35.62203983649215
37.428098319789264
37.85965693594858
36.0274747422962
34.678828005417614
35.43881150084158
37.240145869517356
44.297455573405436
44.30577468384696
44.30577468384696
44.88807262574253
44.96675210320078
45.062424428032266
45.189855013482244
45.33809553007896
45.46793745950698
45.578541870813666
45.724155421800155
45.88601036801573
46.066180742501246
46.32887494485038
46.907043424177466
47.8249563094016
48.39086636098377
48.10320305182297
38.513456007772135
29.135147318307133
30.37806509732725
29.78309659550044
29.531649963054463
29.42024084626229
29.458819894353525
29.062200643619647
28.25114982980827
27.930357483948555
29.164840251225428
32.60386613208448
36.88546753090998
38.41382106973732
37.897883408670964
37.11705672172248
37.20346207620537
37.27246954342153
39.15863645965937
41.5288103054391
41.81294678445388
42.52575340652777
43.431666356299566
43.79590559682433
45.11029044331007
46.158016302588095
46.4155013999368
46.54329097009189
46.696733503942234
46.85027780871667
47.003921845334965
47.18329654164015
47.49109596214384
47.8249563094016
47.71600310623521
44.312551912929905
42.11751382893356
28.895337688770795
31.55552836244165
32.29901713725299
33.24124875910174
33.80698914236258
33.666351345425554
31.491772247435975
28.36692203840306
26.47562937670253
27.22527209204415
30.694243068887573
35.1924739710731
38.94658547351225
39.57982533296127
38.39554620616011
36.54003674312535
35.2965151927924
33.5752271292439
36.63751642290919
38.85074449692936
40.769688562788815
43.01894052526874
45.4169998624068
47.28797973457997
47.4650451991843
47.601707089006155
47.957108965103664
48.402604813846146
48.97541312913303
49.69623048334255
50.71373224572603
52.26544418077449
51.57140946550775
50.06867755519967
47.08276279588748
42.133470149592775
46.95714914282435
29.332769089340147
32.49839072791974
34.684941128106644
37.893037965596285
40.43242262007936
39.17652642465109
33.63805841282549
28.248956677726724
25.308310015874042
25.9566085168849
29.511795524344038
34.53135271519251
39.31909785301018
41.02957449535279
40.664606781383426
38.56298875094718
37.195000584977336
37.433568324603286
38.64463611514848
40.77986100487952
43.5342926593048
46.486546102765395
49.37535182418068
51.745283498477036
52.799301578759646
53.422701612455036
53.916863311313314
54.257886449823935
54.42018926305584
54.523404095887074
54.580714151129236
54.495545638223355
53.224551238179295
51.10916328203459
46.72364764702089
46.190990932107546
47.3841642604537
52.40834220970207
45.957816914409214
52.134667853039545
30.778352379258237
34.18554459981378
36.52824487725183
41.81827307561336
44.96416268732292
41.47970539339608
33.71686166768339
27.470189526867614
24.3634945509923
25.109375999312178
29.13963657321611
35.11234529569427
41.13454246087033
43.096954721216605
43.096954721216605
42.79619146151272
41.98651701127642
42.50992603386749
44.14034401758316
46.657471074409344
49.654092817054234
52.09044305765306
53.88290334766072
55.31187675384376
56.324296287251585
57.07619976589503
57.568257568889386
57.827024239988525
57.827024239988525
57.59414111280136
57.2057365910533
56.55774523699612
54.71584440351426
52.17681161989272
47.895482124431986
47.11576811055377
47.17928511850732
48.68763561034292
49.33763866745075
57.238439848085804
34.980694078834304
40.51855436065789
40.093124925150356
43.657691286112396
44.3953522103952
38.94886139508589
31.785671258759095
25.668672584889507
23.02970563261715
24.639458022787878
29.90190307906387
37.52003922876046
44.6093457342616
46.00707282620484
46.185665569804854
46.05808406619687
46.466608502606995
47.8249563094016
49.810057895996366
51.96065314133963
54.064813671629786
55.883129106474584
57.33523999206369
58.39573357176058
59.09246888353564
59.55611014945328
59.787652330735334
59.83907978329283
59.659041500573885
59.22133001633233
58.628137903009225
57.87875875934164
56.842953564501975
54.25906149504
50.47857011645346
48.54769151521865
47.4183579672512
46.066567390831175
51.57691017107765
64.7282859841639
54.26718727571595
51.346191062755814
45.534709697565766
44.2665381823717
41.854362030206524
35.36837087984952
27.36744455151458
22.087171144446714
21.22519159644041
25.045093759537778
32.868583341158626
43.238023635397276
48.313631972587594
49.78420484185204
50.06867755519967
50.27568537079151
51.07868215716557
52.66172530807702
54.584533970928106
56.40212172236101
58.00806654455344
59.27285926394427
60.173116052026714
60.76301800391571
61.09578590237327
61.19807594087915
61.172507933520635
61.01903708540601
60.7117798188587
60.30147650724047
59.71049301235851
59.01512657201316
58.08563123007991
57.02437597978132
55.883129106474584
55.233955477695666
53.84876308380483
49.79155924924934
45.042559295688804
75.1586319489641
68.24718734735657
60.050020744523174
52.77651976587326
47.66413803106014
38.965681066369704
26.42213487720946
18.577531612743797
16.707072950402505
19.9393210644337
28.667145508776628
41.188370769790325
49.810057895996366
52.843555599520016
53.90889052258018
54.35066728785222
54.92230317178324
55.93504395840297
57.361136542403884
58.83458832067626
60.070381087863744
60.785983958528696
60.99389845320318
60.99754976004919
60.90118688338013
60.66266365471465
60.30206438923685
59.83006909838147
59.24461393134266
58.515766054333255
57.704821649541884
56.79818243716512
55.870942112959476
54.83767754742128
53.66014848796351
52.66296209584135
52.01986086972747
51.82752898597125
51.28783755668416
49.791352570798246
66.99923478678929
26.619070805445418
11.860582985956697
7.741070294700435
5.171870049687982
6.390398551728836
13.521473857545928
26.866525908833495
42.32122923778308
51.50032840647235
53.34970422517237
54.28345226437213
54.87264620081661
55.55661620399403
56.4634622443179
57.53541660485253
58.64740442151522
59.542133560853294
60.062755358424155
60.26678190189954
60.24077079984589
60.044674844546485
59.734735800291936
59.338925283232804
58.86500416336369
58.387823943736926
57.891525973786216
57.42468589755545
57.00872196789379
56.66937465260142
56.37437449899901
56.107198325886294
55.909421404749956
55.90157636150825
56.46368366312578
58.545474715409675
62.81159956094759
54.91666246110797
66.6979378830259
16.72214244458054
5.174225014182397
6.459042653908838
13.126892287434515
27.091404826331157
39.82429872329112
46.136917976649094
50.64862603682268
53.349037693626194
54.80140980285007
55.72277793362336
56.4609516344102
57.175830586189434
57.88867924527062
58.61486353408895
59.229038330060874
59.668466499378304
59.88786282752182
59.95901624950408
59.87477283016108
59.752118653214815
59.55981847486453
59.319813749731935
59.0608653689928
58.81547742321144
58.568125244461534
58.370629835247826
58.218245978831206
58.21923487235073
58.42833025894026
58.89851404757831
59.38271130179157
59.85158743069945
60.39724906823389
62.437182486771874
59.5343013496781
57.01689418279705
29.462061887796082
29.67018079080664
24.38156304319243
5.140473701498891
12.111363871972543
28.16536049055101
40.67758473983658
47.19564676303207
51.15096894624787
53.65658632089524
55.43336244138312
56.64766650645747
57.52044650384112
58.175427244669805
58.71160105849235
59.13893996106123
59.5306512437599
59.75475888161784
59.8444449488432
59.74989733958416
59.53333602164764
59.24389591487962
58.94769360087351
58.65691758666085
58.4270599166189
58.20658679265849
58.0581486759781
57.96898529693197
57.963573322411285
58.07652921933119
58.3466902544297
58.8854797519043
59.924121770749366
61.91595135870681
63.510765818214296
63.71261253121333
62.02877924800959
59.57935866809353
57.32143226054193
57.994603776224245
)
;

boundaryField
{
    ".*"
    {
        type            zeroGradient;
    }
}


// ************************************************************************* //
