/*--------------------------------*- C++ -*----------------------------------*\
  =========                 |
  \\      /  F ield         | OpenFOAM: The Open Source CFD Toolbox
   \\    /   O peration     | Website:  https://openfoam.org
    \\  /    A nd           | Version:  6
     \\/     M anipulation  |
\*---------------------------------------------------------------------------*/
FoamFile
{
    version     2.0;
    format      ascii;
    class       volVectorField;
    location    "4830";
    object      U;
}
// * * * * * * * * * * * * * * * * * * * * * * * * * * * * * * * * * * * * * //

dimensions      [0 1 -1 0 0 0 0];

internalField   nonuniform List<vector> 
458
(
(0.0348262 0.0885224 0)
(-0.17208 0.0265843 0)
(-0.199347 0.019113 0)
(-0.233222 0.0130811 0)
(-0.258394 0.00641371 0)
(-0.273598 -0.000804909 0)
(-0.276727 -0.00877821 0)
(-0.26548 -0.0177781 0)
(-0.239422 -0.027427 0)
(-0.19971 -0.0361117 0)
(-0.150445 -0.0420514 0)
(-0.0978285 -0.0436512 0)
(-0.0487288 -0.0390811 0)
(-0.0062711 -0.0236845 0)
(-0.0102627 0.00977107 0)
(-0.0102376 0.0105127 0)
(-0.0372594 -0.0174875 0)
(-0.0145098 -0.0291039 0)
(0.0136708 -0.0251833 0)
(0.0334416 -0.0178892 0)
(0.048058 -0.00955483 0)
(0.0568172 -0.00517628 0)
(0.0606958 -0.00363245 0)
(0.0621312 -0.00308276 0)
(0.0627806 -0.0027599 0)
(0.0630904 -0.00250946 0)
(0.0630296 -0.00224148 0)
(0.0624318 -0.00179741 0)
(0.0608403 -0.000838779 0)
(0.0572384 0.00107456 0)
(0.0505191 0.00317069 0)
(0.0451144 0.00508652 0)
(-0.014147 0.0219481 0)
(0.214272 0.181889 0)
(-0.162147 0.0709923 0)
(-0.16294 0.057762 0)
(-0.198655 0.045743 0)
(-0.224132 0.0319881 0)
(-0.240108 0.0161755 0)
(-0.24461 -0.00241 0)
(-0.235115 -0.0239666 0)
(-0.211866 -0.0461697 0)
(-0.176484 -0.0649266 0)
(-0.133354 -0.0764266 0)
(-0.088126 -0.0781985 0)
(-0.0462597 -0.0687294 0)
(-0.0100269 -0.0460164 0)
(0.0194088 -0.0133806 0)
(0.0442411 0.00784887 0)
(0.0548464 0.0347577 0)
(-0.0118103 0.0706828 0)
(0.0670406 0.043981 0)
(0.0102893 -0.0218338 0)
(0.0265188 -0.0378985 0)
(0.040747 -0.0356449 0)
(0.053136 -0.0273414 0)
(0.0595582 -0.0120935 0)
(0.0611783 -0.00275345 0)
(0.061228 0.00074554 0)
(0.0613927 0.00202312 0)
(0.0617179 0.0027218 0)
(0.0619429 0.00322162 0)
(0.0620003 0.00367492 0)
(0.0618963 0.00440718 0)
(0.0611852 0.00620504 0)
(0.0577886 0.0112235 0)
(0.0490979 0.0155325 0)
(0.0476926 0.018704 0)
(-0.0584272 0.0475497 0)
(0.379537 0.272954 0)
(-0.180118 0.113732 0)
(-0.123512 0.0941084 0)
(-0.159197 0.072434 0)
(-0.182599 0.0495026 0)
(-0.198409 0.0236425 0)
(-0.204062 -0.00653494 0)
(-0.195373 -0.0409796 0)
(-0.17359 -0.0757806 0)
(-0.141424 -0.103649 0)
(-0.10384 -0.118952 0)
(-0.065895 -0.119155 0)
(-0.0318231 -0.104118 0)
(-0.00227756 -0.0743969 0)
(0.0220297 -0.0400726 0)
(0.037596 -0.0152196 0)
(0.0431775 0.0131627 0)
(-0.0236638 0.0623184 0)
(0.12249 -0.00753391 0)
(0.0725095 -0.0320916 0)
(0.0643115 -0.0419288 0)
(0.0672601 -0.0417565 0)
(0.0718701 -0.0380436 0)
(0.0734888 -0.0282277 0)
(0.0643657 -0.0183287 0)
(0.0574113 -0.0130267 0)
(0.0548129 -0.0100783 0)
(0.0541216 -0.0081858 0)
(0.0538876 -0.00689726 0)
(0.053958 -0.00590232 0)
(0.0547574 -0.00475324 0)
(0.0572083 -0.00139858 0)
(0.0561029 0.0149939 0)
(0.0445871 0.0258691 0)
(0.0541324 0.0332465 0)
(-0.0993774 0.0727938 0)
(0.530025 0.346651 0)
(-0.216668 0.151755 0)
(-0.0801994 0.125835 0)
(-0.115538 0.0962964 0)
(-0.133417 0.0672239 0)
(-0.146929 0.033763 0)
(-0.152515 -0.00711141 0)
(-0.14262 -0.055054 0)
(-0.121288 -0.102308 0)
(-0.0929784 -0.137839 0)
(-0.0625317 -0.155424 0)
(-0.0335726 -0.153426 0)
(-0.0087984 -0.133436 0)
(0.0128643 -0.097922 0)
(0.0304317 -0.0589718 0)
(0.0443557 -0.0228968 0)
(0.0599536 0.0131485 0)
(0.058821 0.0534389 0)
(0.100332 0.0615056 0)
(0.0988149 -0.00244162 0)
(0.0851498 -0.0293889 0)
(0.078466 -0.0376901 0)
(0.0736146 -0.0383936 0)
(0.0670191 -0.0341073 0)
(0.0665999 -0.0208383 0)
(0.0772758 -0.0138299 0)
(0.086239 -0.0101071 0)
(0.0916383 -0.00782429 0)
(0.0948781 -0.00591662 0)
(0.0962847 -0.00385555 0)
(0.0945168 -0.00119018 0)
(0.0882548 0.00248028 0)
(0.0757127 0.00774307 0)
(0.0597988 0.025098 0)
(0.0440615 0.0405832 0)
(0.0629779 0.0533445 0)
(-0.131389 0.094278 0)
(0.66268 0.403808 0)
(-0.262352 0.182677 0)
(-0.0350341 0.145256 0)
(-0.0687493 0.111319 0)
(-0.0779463 0.0792331 0)
(-0.086294 0.0412497 0)
(-0.0890492 -0.0079877 0)
(-0.0740294 -0.0688142 0)
(-0.0534833 -0.125901 0)
(-0.0315798 -0.165072 0)
(-0.0112761 -0.181841 0)
(0.00616043 -0.175989 0)
(0.0193245 -0.151481 0)
(0.0303423 -0.114537 0)
(0.0401925 -0.0729568 0)
(0.0494368 -0.0337223 0)
(0.0619351 0.000674646 0)
(0.076037 0.0197156 0)
(0.0903257 -0.000568227 0)
(0.0896828 -0.0213732 0)
(0.0826161 -0.0300338 0)
(0.0738094 -0.0325492 0)
(0.0655648 -0.0316289 0)
(0.0586207 -0.0266317 0)
(0.0568397 -0.0155119 0)
(0.0603933 -0.00902682 0)
(0.064735 -0.00637225 0)
(0.0684584 -0.00483002 0)
(0.0717013 -0.00274986 0)
(0.0742082 0.000780866 0)
(0.0750579 0.00596794 0)
(0.073164 0.0129864 0)
(0.0682547 0.0224378 0)
(0.0612077 0.0371777 0)
(0.0500558 0.0536293 0)
(0.074859 0.0727481 0)
(-0.00684656 0.101381 0)
(0.0557882 0.150674 0)
(-0.0835197 0.0748404 0)
(-0.277797 0.000487925 0)
(0.761894 0.451322 0)
(-0.308548 0.203337 0)
(0.00242956 0.143885 0)
(-0.0205846 0.116259 0)
(-0.0197907 0.0857221 0)
(-0.0215006 0.0472952 0)
(-0.0143144 -0.0069379 0)
(0.0103139 -0.0859246 0)
(0.0269231 -0.146192 0)
(0.0388249 -0.182423 0)
(0.0460449 -0.194552 0)
(0.0488931 -0.185049 0)
(0.0486286 -0.158118 0)
(0.0472239 -0.119916 0)
(0.0460504 -0.0779379 0)
(0.0464674 -0.0397065 0)
(0.0508195 -0.00999103 0)
(0.0599677 0.00482392 0)
(0.0662438 -0.00105222 0)
(0.0649905 -0.0110142 0)
(0.058605 -0.0188064 0)
(0.0504343 -0.0229109 0)
(0.0427966 -0.0236609 0)
(0.0368207 -0.0211349 0)
(0.0342697 -0.0157709 0)
(0.0354193 -0.0122945 0)
(0.0383732 -0.0108632 0)
(0.0420296 -0.00977545 0)
(0.0460897 -0.00763945 0)
(0.0502722 -0.00338516 0)
(0.0544829 0.00368337 0)
(0.057 0.0131864 0)
(0.0581662 0.0249441 0)
(0.059291 0.0395784 0)
(0.0583674 0.0559998 0)
(0.079709 0.0766955 0)
(0.0654483 0.0889845 0)
(0.0997224 0.0967317 0)
(0.117478 0.0571989 0)
(-0.136895 -0.0299281 0)
(0.815611 0.494186 0)
(-0.334125 0.187369 0)
(0.0322405 0.0938 0)
(0.0390613 0.101055 0)
(0.0459302 0.0830007 0)
(0.0516226 0.0393708 0)
(0.0790966 -0.0311713 0)
(0.103108 -0.103704 0)
(0.113284 -0.157015 0)
(0.11286 -0.18633 0)
(0.10458 -0.192431 0)
(0.0907883 -0.178774 0)
(0.0740931 -0.149767 0)
(0.0575002 -0.111561 0)
(0.042971 -0.070909 0)
(0.0326164 -0.0356953 0)
(0.0281004 -0.0107566 0)
(0.0295004 0.000990858 0)
(0.0311358 -0.000280819 0)
(0.0296342 -0.00656928 0)
(0.0249825 -0.0126306 0)
(0.0188633 -0.0163693 0)
(0.0128383 -0.0177427 0)
(0.00803198 -0.017105 0)
(0.00567098 -0.0151961 0)
(0.00601318 -0.0141017 0)
(0.00805227 -0.0139685 0)
(0.0110506 -0.0137427 0)
(0.0148459 -0.0123619 0)
(0.0195239 -0.00874024 0)
(0.0256926 -0.0016359 0)
(0.0333025 0.00886886 0)
(0.0400693 0.0208902 0)
(0.0478781 0.03416 0)
(0.0558775 0.0479596 0)
(0.075452 0.0644568 0)
(0.0882332 0.0697708 0)
(0.119671 0.0632096 0)
(0.163391 0.0513058 0)
(-0.0203527 0.0954882 0)
(0.921863 0.497285 0)
(-0.0766791 0.167419 0)
(0.110608 0.0261624 0)
(0.163736 0.0227936 0)
(0.161398 0.0155483 0)
(0.162864 -0.0293614 0)
(0.196487 -0.0804089 0)
(0.211269 -0.125542 0)
(0.205357 -0.158277 0)
(0.185088 -0.173981 0)
(0.155582 -0.171673 0)
(0.121083 -0.153972 0)
(0.0852888 -0.124273 0)
(0.0523632 -0.0880736 0)
(0.0244586 -0.0510592 0)
(0.00511467 -0.0219291 0)
(-0.00463153 -0.0044285 0)
(-0.00655859 0.00175815 0)
(-0.00643976 0.00066293 0)
(-0.00764049 -0.00366352 0)
(-0.0109404 -0.00801363 0)
(-0.0154384 -0.0110776 0)
(-0.0200731 -0.0128479 0)
(-0.0239375 -0.0136847 0)
(-0.0263198 -0.0141359 0)
(-0.0272116 -0.014887 0)
(-0.0271757 -0.0158711 0)
(-0.0265941 -0.0165849 0)
(-0.0254668 -0.0164992 0)
(-0.0234876 -0.0150366 0)
(-0.0198624 -0.0114658 0)
(-0.0117098 -0.00490995 0)
(-9.41082e-05 0.00445883 0)
(0.0110862 0.0137604 0)
(0.0226898 0.0208653 0)
(0.0398997 0.0277362 0)
(0.0554302 0.0224377 0)
(0.0795691 0.00564841 0)
(0.14641 0.0479777 0)
(-0.428337 0.212666 0)
(1.06591 0.444164 0)
(0.518237 0.2983 0)
(0.529532 0.249857 0)
(0.518389 0.182906 0)
(0.469835 0.122439 0)
(0.433153 0.0601137 0)
(0.392043 -0.00742286 0)
(0.342838 -0.0669794 0)
(0.289079 -0.107862 0)
(0.232741 -0.126611 0)
(0.17536 -0.125099 0)
(0.118902 -0.108911 0)
(0.0654561 -0.0822852 0)
(0.0202368 -0.0512627 0)
(-0.0161004 -0.0208456 0)
(-0.0329459 -0.00607246 0)
(-0.0401238 0.000441809 0)
(-0.0416803 0.00220718 0)
(-0.0420589 0.00100815 0)
(-0.0432011 -0.00163964 0)
(-0.0458292 -0.00451744 0)
(-0.0494784 -0.00704521 0)
(-0.0535039 -0.00913525 0)
(-0.0573688 -0.010864 0)
(-0.0608166 -0.012366 0)
(-0.0640099 -0.0137475 0)
(-0.0673526 -0.0148461 0)
(-0.0712204 -0.0153024 0)
(-0.0759669 -0.014632 0)
(-0.0820653 -0.0121819 0)
(-0.0902078 -0.00711487 0)
(-0.101119 0.001428 0)
(-0.112753 0.0133218 0)
(-0.127984 0.0284139 0)
(-0.152908 0.0467844 0)
(-0.190232 0.0673933 0)
(-0.241634 0.0862254 0)
(-0.297562 0.0999189 0)
(-0.371647 0.106913 0)
(-0.650671 0.106306 0)
(0.233924 0.0528322 0)
(0.305889 0.115964 0)
(0.321217 0.0913687 0)
(0.299642 0.039579 0)
(0.275045 -0.0106017 0)
(0.244385 -0.0469388 0)
(0.203096 -0.0684125 0)
(0.154002 -0.0754154 0)
(0.100437 -0.0686996 0)
(0.0461654 -0.0529176 0)
(-0.00862754 -0.0295158 0)
(-0.0451322 -0.0114984 0)
(-0.0635906 -0.00314003 0)
(-0.0709216 -0.000758204 0)
(-0.0731571 -0.00028414 0)
(-0.0734752 -0.000982632 0)
(-0.0737772 -0.00258396 0)
(-0.0749159 -0.00467945 0)
(-0.0771313 -0.00676824 0)
(-0.0803871 -0.00854795 0)
(-0.0841833 -0.0100194 0)
(-0.0882903 -0.0111411 0)
(-0.0927197 -0.0119156 0)
(-0.0976249 -0.0123097 0)
(-0.103157 -0.0121331 0)
(-0.109347 -0.0110408 0)
(-0.116066 -0.00856365 0)
(-0.122967 -0.0041576 0)
(-0.129429 0.00273848 0)
(-0.134403 0.0123363 0)
(-0.138371 0.0256171 0)
(-0.141808 0.0431789 0)
(-0.146019 0.0642219 0)
(-0.151773 0.085051 0)
(-0.155359 0.095547 0)
(-0.141304 0.0734007 0)
(-0.11025 -0.0250099 0)
(-0.286615 -0.213742 0)
(0.120027 0.324336 0)
(0.00839089 0.203593 0)
(0.0392654 0.118451 0)
(0.0584791 0.0604355 0)
(0.0631278 0.0216249 0)
(0.0601141 -0.00478653 0)
(0.0401996 -0.0199153 0)
(0.00542177 -0.018956 0)
(-0.0365942 -0.00172003 0)
(-0.0701139 0.0128778 0)
(-0.0912274 0.020882 0)
(-0.100242 0.0232662 0)
(-0.102467 0.0233943 0)
(-0.102412 0.0234468 0)
(-0.10154 0.0241611 0)
(-0.100508 0.0252879 0)
(-0.0997854 0.0264293 0)
(-0.099658 0.0271792 0)
(-0.100183 0.0271136 0)
(-0.101324 0.0259079 0)
(-0.103119 0.0238738 0)
(-0.105495 0.0216291 0)
(-0.108387 0.0194493 0)
(-0.111705 0.0174799 0)
(-0.115313 0.0158311 0)
(-0.118996 0.0146121 0)
(-0.122445 0.0139593 0)
(-0.125176 0.0140301 0)
(-0.126372 0.0155211 0)
(-0.124865 0.0198894 0)
(-0.119076 0.0282959 0)
(-0.107619 0.0417405 0)
(-0.0903522 0.0602412 0)
(-0.0683175 0.0804254 0)
(-0.0434464 0.0948378 0)
(-0.00758483 0.0857783 0)
(0.146942 0.0093061 0)
(-0.209932 -0.129684 0)
(-0.422116 -0.51603 0)
(-0.637319 -0.143275 0)
(-0.449398 0.17776 0)
(-0.357933 0.0560799 0)
(-0.213898 -0.00553879 0)
(-0.145608 -0.0477879 0)
(-0.117163 -0.0705382 0)
(-0.112983 -0.0713636 0)
(-0.122342 -0.062689 0)
(-0.134861 -0.0549776 0)
(-0.140346 -0.0505067 0)
(-0.138588 -0.0490672 0)
(-0.134126 -0.0499532 0)
(-0.128945 -0.0527767 0)
(-0.124482 -0.0563053 0)
(-0.121038 -0.0599485 0)
(-0.118239 -0.0635905 0)
(-0.115826 -0.0672873 0)
(-0.113757 -0.0708886 0)
(-0.112107 -0.0739048 0)
(-0.111007 -0.0756845 0)
(-0.110621 -0.0757911 0)
(-0.11105 -0.0743578 0)
(-0.112257 -0.071986 0)
(-0.114068 -0.0689138 0)
(-0.116259 -0.065274 0)
(-0.118547 -0.0610863 0)
(-0.120565 -0.056277 0)
(-0.12183 -0.0506306 0)
(-0.121709 -0.0438007 0)
(-0.119186 -0.035814 0)
(-0.112353 -0.0266896 0)
(-0.0984058 -0.0158831 0)
(-0.0748444 -0.00248633 0)
(-0.0415507 0.0143644 0)
(0.00931628 0.0362845 0)
(0.061866 0.0423475 0)
(0.109598 0.0240447 0)
(0.172057 -0.0159426 0)
(-0.196289 -0.0826848 0)
)
;

boundaryField
{
    floor
    {
        type            noSlip;
    }
    ceiling
    {
        type            noSlip;
    }
    sWall
    {
        type            noSlip;
    }
    nWall
    {
        type            noSlip;
    }
    sideWalls
    {
        type            empty;
    }
    glass1
    {
        type            noSlip;
    }
    glass2
    {
        type            noSlip;
    }
    sun
    {
        type            noSlip;
    }
    Table_master
    {
        type            noSlip;
    }
    Table_slave
    {
        type            noSlip;
    }
    inlet
    {
        type            fixedValue;
        value           uniform (0.46194 -0.191342 0);
    }
    outlet
    {
        type            zeroGradient;
    }
}


// ************************************************************************* //
