/*--------------------------------*- C++ -*----------------------------------*\
  =========                 |
  \\      /  F ield         | OpenFOAM: The Open Source CFD Toolbox
   \\    /   O peration     | Website:  https://openfoam.org
    \\  /    A nd           | Version:  6
     \\/     M anipulation  |
\*---------------------------------------------------------------------------*/
FoamFile
{
    version     2.0;
    format      ascii;
    class       volScalarField;
    location    "10000";
    object      k;
}
// * * * * * * * * * * * * * * * * * * * * * * * * * * * * * * * * * * * * * //

dimensions      [0 2 -2 0 0 0 0];

internalField   nonuniform List<scalar> 
778
(
0.00139627
0.00156508
0.00301293
0.00155973
0.00558059
0.00489394
0.00169252
0.00216927
0.0112078
0.00719699
0.00181554
0.00220464
0.0027501
0.0195529
0.00996301
0.00192849
0.00228465
0.00255069
0.00355368
0.0310696
0.0131725
0.00203433
0.00238503
0.00259204
0.00268711
0.00502162
0.0450411
0.016944
0.00213671
0.0024979
0.00269406
0.00263369
0.00270377
0.00781547
0.058353
0.0207243
0.00223994
0.00262561
0.00281469
0.00269699
0.00248779
0.00274576
0.012711
0.068551
0.0220521
0.00234956
0.00277093
0.00295106
0.00276507
0.00248969
0.00228704
0.00301514
0.019871
0.0688444
0.0213648
0.00246264
0.00293557
0.00310296
0.00283034
0.00249084
0.00222231
0.00212993
0.00414959
0.0313092
0.051392
0.0189519
0.00257804
0.00312175
0.00326912
0.00289951
0.00247908
0.00216467
0.00199333
0.00214329
0.00983296
0.0329739
0.0392901
0.015848
0.00270271
0.00332041
0.00345943
0.0029886
0.00247084
0.00209051
0.00189475
0.001867
0.00329136
0.0165066
0.0298376
0.0313913
0.0132074
0.00284967
0.00351251
0.00370241
0.00312513
0.00249911
0.00202531
0.00178475
0.00173903
0.00204382
0.00775384
0.0189674
0.0263578
0.0253639
0.0131998
0.00301826
0.00364981
0.00401267
0.00335208
0.00260651
0.00202493
0.00169549
0.0016224
0.001763
0.0040976
0.0115455
0.0191503
0.0230741
0.0221415
0.0107848
0.0036676
0.00440918
0.00369364
0.00282898
0.00215219
0.00171378
0.00155315
0.0016409
0.00270801
0.00733812
0.0135446
0.0184107
0.0218377
0.0116377
0.00360856
0.00489033
0.00416692
0.00318259
0.00241195
0.0019135
0.00166186
0.00166662
0.0022094
0.00515399
0.00984263
0.0142934
0.0175479
0.0122136
0.00343288
0.00523913
0.00474934
0.00367951
0.00279111
0.00225016
0.00197259
0.00192471
0.00227219
0.00411821
0.00758375
0.0112865
0.0141683
0.0117245
0.0196548
0.00330994
0.00499846
0.00530144
0.00431028
0.00329559
0.00267024
0.00238033
0.00231392
0.00259226
0.00381154
0.0062991
0.0092299
0.0116504
0.0105982
0.00550453
0.0145755
0.00468711
0.00562013
0.00500113
0.00393635
0.00318647
0.00282762
0.00273659
0.00296164
0.00381433
0.00559554
0.00787319
0.00981073
0.00932708
0.00302035
0.00570425
0.0106187
0.00593067
0.00568679
0.00466977
0.00383917
0.00334214
0.00317368
0.00331538
0.0039153
0.00517319
0.00688703
0.00842224
0.00812334
0.00258234
0.00294494
0.00570723
0.0172711
0.0126508
0.00502836
0.00649871
0.00543935
0.0045935
0.00398638
0.00369027
0.00369759
0.00406983
0.0049135
0.00611938
0.00719769
0.00687709
0.00222128
0.0025766
0.00791708
0.0142606
0.011645
0.0133642
0.00674836
0.00553932
0.00696745
0.00616742
0.00536676
0.00475951
0.00436399
0.00422003
0.00436876
0.00486196
0.00562452
0.00628154
0.00587721
0.00233963
0.00458705
0.0135252
0.0155047
0.0071152
0.0111025
0.00730009
0.00405176
0.00538234
0.00624047
0.00649555
0.00601429
0.00554939
0.00518126
0.00495882
0.00493946
0.00516513
0.00559272
0.00597004
0.00569084
0.00390521
0.00932501
0.0177031
0.0171367
0.00753219
0.0106767
0.00275478
0.00429205
0.00517245
0.00583679
0.00623064
0.00632245
0.00617256
0.00599719
0.00585307
0.00580557
0.00591157
0.00617803
0.00649702
0.00663679
0.00682957
0.0143344
0.0200043
0.0175045
0.00744219
0.0015286
0.00298515
0.00433653
0.00484546
0.00545594
0.00586669
0.00621023
0.0064486
0.00659523
0.00669694
0.00680717
0.00699454
0.00731628
0.00780746
0.008563
0.0103994
0.0177589
0.0205768
0.0167956
0.0068824
0.00162301
0.00313097
0.00412172
0.00440257
0.00503419
0.00542071
0.0058434
0.00632124
0.00679685
0.0072337
0.0076483
0.00809818
0.00867286
0.00949718
0.0108535
0.013592
0.019217
0.0199354
0.0155026
0.00612316
0.00164586
0.00304704
0.00369663
0.00347945
0.00459097
0.00492907
0.00532598
0.00588074
0.00655681
0.00728622
0.00803433
0.00882791
0.00974788
0.01095
0.0127029
0.015503
0.0189478
0.01842
0.0139884
0.00537829
0.00159516
0.00279172
0.00274427
0.00288164
0.00408608
0.00444448
0.00475531
0.00525745
0.00596803
0.00683693
0.00781397
0.00888627
0.0101044
0.0115701
0.0134586
0.0157155
0.0170071
0.0161534
0.0124089
0.00472818
0.00149011
0.00237739
0.00206858
0.00246323
0.00362746
0.00399161
0.00421433
0.00458548
0.00519037
0.00601909
0.00703222
0.00820582
0.00953695
0.0110659
0.0127573
0.0143227
0.0139904
0.0133351
0.0108278
0.00416788
0.00133966
0.00200797
0.00161553
0.00213958
0.00323807
0.0035998
0.00375004
0.00397075
0.00438977
0.00503664
0.00589914
0.00694549
0.00816257
0.00948084
0.0107889
0.0113888
0.0106789
0.0104193
0.00932266
0.00368226
0.00119231
0.00170415
0.00130183
0.00188253
0.00290724
0.00327184
0.00337728
0.00347041
0.00368977
0.00409036
0.00467725
0.00543719
0.00630864
0.00725697
0.00794039
0.00808507
0.0076115
0.00786635
0.00801371
0.00327401
0.00106188
0.00145751
0.00107757
0.00166626
0.00260951
0.00299321
0.0030855
0.00309467
0.00314998
0.00331451
0.00360627
0.00400322
0.00449518
0.004891
0.00525298
0.00543242
0.00533625
0.00598461
0.00699498
0.00295568
0.000949494
0.00125571
0.000912673
0.00147457
0.00233572
0.00274009
0.00285021
0.00282271
0.00277141
0.00275978
0.00281102
0.00292596
0.00303296
0.00324363
0.00347891
0.00371411
0.00396323
0.0048395
0.00624222
0.00273343
0.000853969
0.00108934
0.000788778
0.00129561
0.00207796
0.00250127
0.00264534
0.00261946
0.00252013
0.00240479
0.00230906
0.00224226
0.00224042
0.0023216
0.00251104
0.00280637
0.00325817
0.00423797
0.00565359
0.00260423
0.000772179
0.000950336
0.000695242
0.00111493
0.00182869
0.00226686
0.00245286
0.00245529
0.00234961
0.00219406
0.00202893
0.00189303
0.00183302
0.00186511
0.00203124
0.00236741
0.00291615
0.00391815
0.00520942
0.00255206
0.00070148
0.000831816
0.000627562
0.000835766
0.00157654
0.00202852
0.00225901
0.00230582
0.00222536
0.00206921
0.00188503
0.00172538
0.00163311
0.00163562
0.00178509
0.00213722
0.00272748
0.00372342
0.00488214
0.00254082
0.000639453
0.000731391
0.000577924
0.000692951
0.0012516
0.00177712
0.0020542
0.00215388
0.00211706
0.00198878
0.00181445
0.00164731
0.00153622
0.00151345
0.00163726
0.00198566
0.00259625
0.00359129
0.00465985
0.00256585
0.000583647
0.000659775
0.000579954
0.00146445
0.00096109
0.00148713
0.00183116
0.00198875
0.00200529
0.00191942
0.0017739
0.001615
0.00149079
0.00144431
0.00153407
0.00186149
0.00248647
0.00350055
0.00454086
0.00262512
0.000531363
0.000616436
0.00120501
0.000853697
0.00123139
0.00119785
0.0015827
0.00180419
0.00187925
0.00184282
0.00173496
0.00159708
0.00147201
0.00140438
0.00145662
0.00174867
0.00238449
0.00343914
0.00452114
0.00271422
0.000478904
0.000900882
0.000706471
0.00124391
0.00114222
0.00133246
0.00159872
0.00173372
0.00175005
0.00168388
0.00157479
0.00145958
0.00138166
0.00139899
0.00164572
0.00228555
0.00339351
0.00458733
0.00282538
0.000435019
0.000552123
0.00119643
0.00113776
0.00117302
0.0013891
0.0015691
0.00163767
0.0016144
0.00153819
0.00144128
0.00136307
0.00135853
0.00155847
0.0021917
0.00334971
0.00471526
0.00294913
0.00035569
0.00205387
0.0017334
0.00110925
0.00122573
0.00139837
0.00150755
0.00152518
0.00148229
0.00140965
0.00134035
0.00132622
0.00149612
0.00211235
0.0033003
0.00487238
0.00307686
0.00188422
0.00513901
0.00157884
0.00115377
0.00126721
0.00137183
0.00142097
0.00140711
0.00136071
0.00130841
0.00129644
0.00145827
0.00206342
0.00325279
0.00502409
0.0032028
0.00268981
0.00630402
0.00209624
0.00130248
0.00128336
0.00131987
0.00132259
0.00129688
0.00126554
0.00126855
0.00144567
0.00205769
0.00323123
0.00514329
0.00332526
0.00372586
0.0143166
0.00386905
0.00159036
0.00132465
0.00126988
0.00123889
0.00121783
0.00124707
0.0014675
0.00210951
0.00325984
0.00522479
0.00344723
0.00637385
0.0284781
0.00759844
0.00219968
0.0015645
0.00128958
0.00119651
0.00124469
0.00153588
0.00223684
0.00336498
0.00532025
0.00357435
0.00814324
0.0267397
0.00882813
0.00362487
0.00200533
0.00133224
0.00129549
0.00166233
0.00245381
0.00356584
0.00546804
0.00371147
0.00858156
0.0242473
0.00976017
0.00477153
0.00215
0.00150639
0.00186739
0.00276906
0.00387872
0.00569565
0.00386919
0.00858714
0.0206499
0.0102737
0.00482626
0.00222756
0.00222213
0.00319854
0.00431738
0.00602582
0.00405513
0.0081909
0.0170844
0.00997008
0.00440058
0.00294877
0.00380183
0.00490168
0.00648404
0.00427377
0.0076497
0.0173033
0.00945724
0.00470899
0.0047564
0.00568161
0.00711175
0.00452751
0.00752594
0.0162943
0.0103913
0.00657361
0.00678708
0.00798915
0.00481873
0.00865308
0.01476
0.0118601
0.00854225
0.0092406
0.00515495
0.00904149
0.0152145
0.0117536
0.010991
0.00556769
0.00934247
0.0154485
0.0138916
0.00615851
0.00851946
0.0176582
0.0070166
0.00813608
0.00814455
0.00749654
)
;

boundaryField
{
    floor
    {
        type            kqRWallFunction;
        value           nonuniform List<scalar> 
36
(
0.00301826
0.0015286
0.00162301
0.00164586
0.00159516
0.00149011
0.00133966
0.00119231
0.00106188
0.000949494
0.000853969
0.000772179
0.00070148
0.000639453
0.000583647
0.000531363
0.000478904
0.000435019
0.00035569
0.00035569
0.000552123
0.000706471
0.000853697
0.00119643
0.00205387
0.00188422
0.00301826
0.00360856
0.00343288
0.00330994
0.0015286
0.00330994
0.00275478
0.00468711
0.00405176
0.00502836
)
;
    }
    ceiling
    {
        type            kqRWallFunction;
        value           nonuniform List<scalar> 
43
(
0.0106767
0.00730009
0.00674836
0.0071152
0.00753219
0.00744219
0.0068824
0.00612316
0.00537829
0.00472818
0.00416788
0.00368226
0.00327401
0.00295568
0.00273343
0.00260423
0.00255206
0.00254082
0.00256585
0.00262512
0.00271422
0.00282538
0.00294913
0.00307686
0.0032028
0.00332526
0.00344723
0.00357435
0.00371147
0.00386919
0.00405513
0.00427377
0.00452751
0.00481873
0.00515495
0.00556769
0.00615851
0.0070166
0.00814455
0.00749654
0.0107848
0.0116377
0.0145755
)
;
    }
    sWall
    {
        type            kqRWallFunction;
        value           nonuniform List<scalar> 9(0.0213648 0.0189519 0.015848 0.0132074 0.0131998 0.0107848 0.011645 0.0111025 0.0106767);
    }
    nWall
    {
        type            kqRWallFunction;
        value           nonuniform List<scalar> 
14
(
0.00188422
0.00268981
0.00372586
0.00858156
0.00858714
0.0081909
0.0076497
0.00752594
0.00865308
0.00904149
0.00934247
0.00851946
0.00813608
0.00749654
)
;
    }
    sideWalls
    {
        type            empty;
    }
    glass1
    {
        type            kqRWallFunction;
        value           nonuniform List<scalar> 9(0.00139627 0.00301293 0.00489394 0.00719699 0.00996301 0.0131725 0.016944 0.0207243 0.0220521);
    }
    glass2
    {
        type            kqRWallFunction;
        value           nonuniform List<scalar> 2(0.00637385 0.00814324);
    }
    sun
    {
        type            kqRWallFunction;
        value           nonuniform List<scalar> 
14
(
0.00139627
0.00156508
0.00155973
0.00169252
0.00181554
0.00192849
0.00203433
0.00213671
0.00223994
0.00234956
0.00246264
0.00257804
0.00270271
0.00284967
)
;
    }
    Table_master
    {
        type            kqRWallFunction;
        value           nonuniform List<scalar> 9(0.00274427 0.00206858 0.00161553 0.00130183 0.00107757 0.000912673 0.000788778 0.000695242 0.000627562);
    }
    Table_slave
    {
        type            kqRWallFunction;
        value           nonuniform List<scalar> 9(0.00347945 0.00288164 0.00246323 0.00213958 0.00188253 0.00166626 0.00147457 0.00129561 0.00111493);
    }
    inlet
    {
        type            turbulentIntensityKineticEnergyInlet;
        intensity       0.5;
        value           uniform 0.09375;
    }
    outlet
    {
        type            zeroGradient;
    }
}


// ************************************************************************* //
