/*--------------------------------*- C++ -*----------------------------------*\
  =========                 |
  \\      /  F ield         | OpenFOAM: The Open Source CFD Toolbox
   \\    /   O peration     | Website:  https://openfoam.org
    \\  /    A nd           | Version:  6
     \\/     M anipulation  |
\*---------------------------------------------------------------------------*/
FoamFile
{
    version     2.0;
    format      ascii;
    class       volVectorField;
    location    "10000";
    object      U;
}
// * * * * * * * * * * * * * * * * * * * * * * * * * * * * * * * * * * * * * //

dimensions      [0 1 -1 0 0 0 0];

internalField   nonuniform List<vector> 
778
(
(0.065598 0.079407 0)
(-0.155177 0.0157641 0)
(-0.164302 0.0146226 0)
(-0.192415 0.0122731 0)
(-0.216848 0.00872386 0)
(-0.236906 0.00474426 0)
(-0.252033 0.000418829 0)
(-0.261806 -0.00436518 0)
(-0.265711 -0.0098066 0)
(-0.262745 -0.0161861 0)
(-0.250951 -0.0242596 0)
(-0.22626 -0.0348798 0)
(-0.186141 -0.0504038 0)
(-0.144201 -0.0751778 0)
(-0.15008 -0.108576 0)
(0.0546562 0.0355152 0)
(0.0157691 -0.0268977 0)
(0.0449825 -0.0232856 0)
(0.0694196 -0.0161805 0)
(0.0845144 -0.0103687 0)
(0.0917455 -0.00641828 0)
(0.094584 -0.00433472 0)
(0.0956107 -0.00331295 0)
(0.0960588 -0.00272814 0)
(0.0962295 -0.00231627 0)
(0.096107 -0.00195221 0)
(0.095582 -0.0015113 0)
(0.0943238 -0.000756267 0)
(0.0914732 0.000849808 0)
(0.0852606 0.00407654 0)
(0.0737034 0.00779175 0)
(0.0600048 0.0116476 0)
(-0.00785976 0.0300148 0)
(0.258397 0.167394 0)
(-0.161236 0.0483917 0)
(-0.141602 0.045976 0)
(-0.174002 0.0416092 0)
(-0.19936 0.0356628 0)
(-0.220077 0.0291262 0)
(-0.236106 0.0220587 0)
(-0.24736 0.0142331 0)
(-0.253543 0.00530525 0)
(-0.253871 -0.00514124 0)
(-0.247729 -0.0170719 0)
(-0.234036 -0.0308444 0)
(-0.214138 -0.0480781 0)
(-0.197569 -0.0699696 0)
(-0.194064 -0.0826532 0)
(-0.166459 -0.0425527 0)
(-0.105396 -0.0363761 0)
(-0.0983228 -0.0444864 0)
(0.109345 -0.0421043 0)
(0.064459 -0.0412105 0)
(0.0719264 -0.032328 0)
(0.0859454 -0.0207826 0)
(0.0938924 -0.0105261 0)
(0.0961589 -0.00365343 0)
(0.0959273 -0.000185036 0)
(0.0955336 0.00125996 0)
(0.0954912 0.00189954 0)
(0.0955685 0.00226733 0)
(0.0955744 0.00258772 0)
(0.0954743 0.00313138 0)
(0.0951837 0.00441595 0)
(0.0939261 0.00773691 0)
(0.088326 0.0167806 0)
(0.0745566 0.0253855 0)
(0.0631696 0.0330376 0)
(-0.0518428 0.0636482 0)
(0.429975 0.253956 0)
(-0.194236 0.0847596 0)
(-0.112779 0.0784248 0)
(-0.148241 0.066945 0)
(-0.170668 0.0554899 0)
(-0.188757 0.0437212 0)
(-0.202592 0.0313455 0)
(-0.212284 0.0180182 0)
(-0.217639 0.00341843 0)
(-0.218005 -0.0126075 0)
(-0.212758 -0.0303004 0)
(-0.20166 -0.049893 0)
(-0.186024 -0.0715675 0)
(-0.169486 -0.0932256 0)
(-0.15111 -0.104583 0)
(-0.120265 -0.0931578 0)
(-0.0795598 -0.0949563 0)
(-0.0714383 -0.10762 0)
(0.0921619 -0.0881564 0)
(0.0625895 -0.0657941 0)
(0.074397 -0.0462038 0)
(0.0880543 -0.0293508 0)
(0.0949347 -0.0150253 0)
(0.0920687 -0.0120918 0)
(0.0878287 -0.00797837 0)
(0.0854528 -0.00578597 0)
(0.0847631 -0.00455663 0)
(0.0847429 -0.00379515 0)
(0.0849979 -0.00322551 0)
(0.0856491 -0.00259946 0)
(0.0874115 -0.00143865 0)
(0.0921018 0.00292573 0)
(0.0902717 0.0251256 0)
(0.0734775 0.0424157 0)
(0.0701627 0.057599 0)
(-0.0897635 0.101072 0)
(0.578538 0.325843 0)
(-0.240106 0.121812 0)
(-0.080837 0.109213 0)
(-0.121575 0.0898395 0)
(-0.139005 0.0740551 0)
(-0.153061 0.0586261 0)
(-0.163817 0.0427519 0)
(-0.17141 0.0258195 0)
(-0.175621 0.00721933 0)
(-0.175691 -0.0135022 0)
(-0.171009 -0.0364402 0)
(-0.161447 -0.0614338 0)
(-0.147581 -0.0873662 0)
(-0.1306 -0.110311 0)
(-0.109636 -0.123217 0)
(-0.0821521 -0.124555 0)
(-0.0525378 -0.126383 0)
(-0.0334116 -0.123206 0)
(0.0163355 -0.0568196 0)
(0.0608206 -0.0930253 0)
(0.0684935 -0.0792232 0)
(0.0791186 -0.0588984 0)
(0.0916122 -0.0396874 0)
(0.102947 -0.0210395 0)
(0.115704 -0.0132963 0)
(0.126922 -0.00887444 0)
(0.132578 -0.00563981 0)
(0.133598 -0.00311819 0)
(0.131093 -0.000885611 0)
(0.125642 0.00128755 0)
(0.117122 0.00366848 0)
(0.10477 0.0067213 0)
(0.0855338 0.0111487 0)
(0.0716625 0.0368282 0)
(0.0604051 0.0605983 0)
(0.0764225 0.0835179 0)
(-0.117174 0.13751 0)
(0.705713 0.383684 0)
(-0.28768 0.157009 0)
(-0.0477021 0.133771 0)
(-0.0962961 0.106904 0)
(-0.107745 0.0875807 0)
(-0.116774 0.0691635 0)
(-0.123559 0.0504469 0)
(-0.128215 0.0305996 0)
(-0.130571 0.0087482 0)
(-0.129764 -0.0157868 0)
(-0.125266 -0.0430423 0)
(-0.116645 -0.0726565 0)
(-0.103922 -0.102814 0)
(-0.0874432 -0.129093 0)
(-0.0674889 -0.145795 0)
(-0.0441406 -0.152272 0)
(-0.020277 -0.152374 0)
(0.000266784 -0.143726 0)
(0.0307984 -0.115014 0)
(0.0569799 -0.109377 0)
(0.070575 -0.0924812 0)
(0.0807185 -0.0713363 0)
(0.0907825 -0.0509051 0)
(0.100345 -0.0328724 0)
(0.109479 -0.0194721 0)
(0.116545 -0.0100731 0)
(0.120012 -0.00336221 0)
(0.120245 0.00190457 0)
(0.117854 0.00646043 0)
(0.113215 0.0108184 0)
(0.106358 0.0154884 0)
(0.0972203 0.0211728 0)
(0.0853135 0.0291748 0)
(0.0737935 0.0471812 0)
(0.0633799 0.0712559 0)
(0.0950189 0.0994817 0)
(0.0174416 0.138703 0)
(0.0969188 0.18273 0)
(0.140339 0.147255 0)
(-0.222979 0.202253 0)
(0.810413 0.431979 0)
(-0.331315 0.190681 0)
(-0.0173247 0.150241 0)
(-0.0733747 0.117508 0)
(-0.0785994 0.0954979 0)
(-0.0822175 0.0749343 0)
(-0.0844671 0.0543396 0)
(-0.0854987 0.0327284 0)
(-0.0852365 0.00888246 0)
(-0.0825547 -0.018375 0)
(-0.0773846 -0.0489822 0)
(-0.0687537 -0.0824619 0)
(-0.056753 -0.116481 0)
(-0.0416878 -0.146306 0)
(-0.0246967 -0.166003 0)
(-0.00630184 -0.174506 0)
(0.0120879 -0.172753 0)
(0.0280097 -0.161013 0)
(0.0461786 -0.139338 0)
(0.0626344 -0.122373 0)
(0.0733113 -0.102547 0)
(0.0809929 -0.0805251 0)
(0.0877558 -0.0592078 0)
(0.0939486 -0.0403465 0)
(0.0993059 -0.0251674 0)
(0.103033 -0.0137981 0)
(0.104677 -0.00508913 0)
(0.104283 0.0021198 0)
(0.102149 0.00860185 0)
(0.0985265 0.0148718 0)
(0.0935754 0.0214534 0)
(0.0875328 0.0289787 0)
(0.0806738 0.0383637 0)
(0.0749579 0.0527596 0)
(0.0698199 0.0727455 0)
(0.0920217 0.0985152 0)
(0.0742318 0.107494 0)
(0.0911185 0.048386 0)
(0.146349 -0.0352653 0)
(-0.323824 0.10603 0)
(0.879877 0.474693 0)
(-0.368631 0.220967 0)
(0.00370584 0.155553 0)
(-0.0526713 0.121561 0)
(-0.0522178 0.097838 0)
(-0.0510333 0.0758082 0)
(-0.0490226 0.0540369 0)
(-0.0464987 0.03154 0)
(-0.0432996 0.00679152 0)
(-0.0373259 -0.0222638 0)
(-0.0302417 -0.0553194 0)
(-0.02045 -0.0918904 0)
(-0.00863962 -0.128856 0)
(0.00457016 -0.161227 0)
(0.0176223 -0.181875 0)
(0.0304098 -0.190215 0)
(0.0422198 -0.18723 0)
(0.0525289 -0.174422 0)
(0.0625003 -0.154073 0)
(0.0710772 -0.13243 0)
(0.0766032 -0.109435 0)
(0.080066 -0.0859622 0)
(0.0826715 -0.0638141 0)
(0.0849248 -0.0443352 0)
(0.0867853 -0.028241 0)
(0.0879159 -0.0154379 0)
(0.0880846 -0.00515212 0)
(0.0871376 0.00352776 0)
(0.085252 0.0112783 0)
(0.0825749 0.0186165 0)
(0.0792843 0.0260358 0)
(0.0756665 0.0340325 0)
(0.0721406 0.0431593 0)
(0.0701091 0.0547101 0)
(0.0690129 0.0690985 0)
(0.0822339 0.0881103 0)
(0.0857338 0.0916039 0)
(0.0914969 0.0547934 0)
(0.181285 0.0273652 0)
(-0.277668 0.155895 0)
(0.927918 0.517152 0)
(-0.383147 0.234169 0)
(0.0168819 0.132966 0)
(-0.0273333 0.116641 0)
(-0.0265601 0.0949031 0)
(-0.0227468 0.0724077 0)
(-0.0176241 0.0500861 0)
(-0.0123371 0.0272408 0)
(-0.00534454 0.00184726 0)
(0.00464114 -0.0307208 0)
(0.0143806 -0.065289 0)
(0.025688 -0.103278 0)
(0.0373239 -0.140798 0)
(0.0479799 -0.172084 0)
(0.0570465 -0.192291 0)
(0.0645177 -0.199792 0)
(0.0702248 -0.195383 0)
(0.074171 -0.181195 0)
(0.0768656 -0.160116 0)
(0.0782232 -0.136131 0)
(0.0778625 -0.111138 0)
(0.0763618 -0.0866447 0)
(0.074555 -0.0641165 0)
(0.07297 -0.0445444 0)
(0.0717441 -0.0282962 0)
(0.0707362 -0.0150867 0)
(0.0697396 -0.00422251 0)
(0.0684588 0.00506278 0)
(0.0669889 0.0133419 0)
(0.0653015 0.0210915 0)
(0.0634764 0.0287269 0)
(0.0617048 0.0365875 0)
(0.0603066 0.044945 0)
(0.0601938 0.0542484 0)
(0.0613256 0.0644602 0)
(0.0704978 0.077232 0)
(0.0811526 0.0804906 0)
(0.0825024 0.0616197 0)
(0.238802 0.0569691 0)
(-0.546915 0.234913 0)
(1.01128 0.506812 0)
(-0.137179 0.296342 0)
(0.0410882 0.161506 0)
(0.0406221 0.122056 0)
(0.0131021 0.091932 0)
(0.00867925 0.0653127 0)
(0.0141182 0.0413353 0)
(0.020764 0.0169289 0)
(0.0326043 -0.011062 0)
(0.0440951 -0.0421639 0)
(0.0559922 -0.0768899 0)
(0.0682775 -0.114581 0)
(0.0794008 -0.151019 0)
(0.0878665 -0.180474 0)
(0.0930408 -0.19851 0)
(0.0950476 -0.2037 0)
(0.0943023 -0.197079 0)
(0.0913546 -0.181059 0)
(0.08688 -0.158683 0)
(0.0813278 -0.133273 0)
(0.074991 -0.107268 0)
(0.0684728 -0.0824996 0)
(0.0625003 -0.060316 0)
(0.0575965 -0.0414328 0)
(0.0539509 -0.0259208 0)
(0.0514491 -0.0132769 0)
(0.049805 -0.00273103 0)
(0.0486108 0.00639829 0)
(0.0478129 0.0146019 0)
(0.0471799 0.022309 0)
(0.0466522 0.0298426 0)
(0.0462688 0.0374038 0)
(0.0461615 0.0450618 0)
(0.0468042 0.0528196 0)
(0.0483189 0.0602225 0)
(0.0546205 0.0674686 0)
(0.0661557 0.0652008 0)
(0.0642647 0.0382287 0)
(0.290153 0.0712826 0)
(-0.745989 0.307627 0)
(0.779311 0.395677 0)
(0.000921327 0.319473 0)
(0.093432 0.218893 0)
(0.110664 0.15513 0)
(0.0772399 0.106762 0)
(0.0598597 0.067461 0)
(0.0582863 0.0356585 0)
(0.0624744 0.00630463 0)
(0.073943 -0.0235314 0)
(0.0855496 -0.0551071 0)
(0.0977721 -0.0897642 0)
(0.109642 -0.12621 0)
(0.118993 -0.15994 0)
(0.124049 -0.185629 0)
(0.124222 -0.199706 0)
(0.119949 -0.20133 0)
(0.112189 -0.191848 0)
(0.102017 -0.173794 0)
(0.0904723 -0.150195 0)
(0.0783968 -0.124089 0)
(0.0664823 -0.0980251 0)
(0.055471 -0.0739315 0)
(0.0461 -0.0530502 0)
(0.0388496 -0.0358136 0)
(0.0338211 -0.0219836 0)
(0.0307534 -0.0107665 0)
(0.0291581 -0.00125735 0)
(0.0285481 0.00715747 0)
(0.028617 0.0149101 0)
(0.0290237 0.0223575 0)
(0.0296074 0.029725 0)
(0.0302522 0.0371283 0)
(0.030827 0.0445572 0)
(0.0312151 0.0518701 0)
(0.0307355 0.0585168 0)
(0.0302839 0.0639655 0)
(0.016234 0.0633587 0)
(0.0129869 0.0921981 0)
(0.0573026 0.173598 0)
(-0.633029 0.309252 0)
(0.61724 0.22071 0)
(0.00476013 0.298057 0)
(0.113082 0.241507 0)
(0.148365 0.177499 0)
(0.130945 0.123424 0)
(0.117929 0.0777205 0)
(0.115081 0.0387529 0)
(0.117276 0.00324251 0)
(0.123683 -0.0308687 0)
(0.131951 -0.0651142 0)
(0.141665 -0.100528 0)
(0.150547 -0.135309 0)
(0.155649 -0.165106 0)
(0.155049 -0.185602 0)
(0.14844 -0.194495 0)
(0.136733 -0.191799 0)
(0.1214 -0.179235 0)
(0.103945 -0.159357 0)
(0.0857382 -0.135068 0)
(0.0678901 -0.109166 0)
(0.0513548 -0.0841459 0)
(0.0370323 -0.0618947 0)
(0.0256955 -0.043493 0)
(0.0176522 -0.0289834 0)
(0.0126829 -0.0177174 0)
(0.0101048 -0.00851699 0)
(0.00916577 -0.000416569 0)
(0.00939285 0.00706699 0)
(0.010283 0.0142547 0)
(0.0115725 0.0213929 0)
(0.0130835 0.0286342 0)
(0.0146136 0.0361049 0)
(0.0158254 0.0439002 0)
(0.0161554 0.0521305 0)
(0.0144329 0.0608243 0)
(0.00998719 0.071028 0)
(-0.0225382 0.0969632 0)
(-0.0196776 0.144565 0)
(0.00595848 0.186742 0)
(-0.544348 0.202729 0)
(0.570782 0.118297 0)
(-0.0202263 0.258555 0)
(0.113739 0.229847 0)
(0.165092 0.175999 0)
(0.166764 0.126088 0)
(0.164436 0.0809635 0)
(0.165445 0.0397992 0)
(0.168433 0.00142744 0)
(0.172434 -0.0355882 0)
(0.178058 -0.072052 0)
(0.184261 -0.107613 0)
(0.187956 -0.139538 0)
(0.186125 -0.163993 0)
(0.177398 -0.178187 0)
(0.162229 -0.181329 0)
(0.14216 -0.174298 0)
(0.119126 -0.159098 0)
(0.0948793 -0.138147 0)
(0.0710099 -0.11416 0)
(0.0487581 -0.0896504 0)
(0.0293153 -0.067032 0)
(0.0137483 -0.0480842 0)
(0.00271725 -0.0335385 0)
(-0.00410868 -0.0226363 0)
(-0.00755393 -0.0144124 0)
(-0.00899716 -0.00725202 0)
(-0.00913902 -0.000481891 0)
(-0.00826904 0.00613968 0)
(-0.00684475 0.0127657 0)
(-0.00494677 0.0195362 0)
(-0.00270041 0.0265883 0)
(-0.000248243 0.0341913 0)
(0.00205442 0.0426238 0)
(0.00354595 0.0524267 0)
(0.00310026 0.0645918 0)
(0.00058384 0.0829536 0)
(-0.0265493 0.124369 0)
(-0.020265 0.184693 0)
(0.0225312 0.185376 0)
(-0.514347 0.0711833 0)
(0.628522 0.0534114 0)
(0.00935639 0.197231 0)
(0.113784 0.196936 0)
(0.175085 0.157887 0)
(0.191337 0.11759 0)
(0.198002 0.0771146 0)
(0.203362 0.0370517 0)
(0.208624 -0.00178514 0)
(0.213209 -0.0399372 0)
(0.217596 -0.0767303 0)
(0.219465 -0.11001 0)
(0.215649 -0.136661 0)
(0.20427 -0.154128 0)
(0.185426 -0.161447 0)
(0.16073 -0.159175 0)
(0.132338 -0.148698 0)
(0.102475 -0.132057 0)
(0.072848 -0.111327 0)
(0.0452211 -0.0890431 0)
(0.0208151 -0.0674203 0)
(0.00125957 -0.0488566 0)
(-0.0123374 -0.03506 0)
(-0.0201417 -0.025824 0)
(-0.0243142 -0.018835 0)
(-0.0261638 -0.0128188 0)
(-0.0266309 -0.00701968 0)
(-0.0261717 -0.00116866 0)
(-0.0249184 0.00479208 0)
(-0.0232076 0.0108863 0)
(-0.0209532 0.0171931 0)
(-0.0181861 0.0238576 0)
(-0.0149213 0.0311953 0)
(-0.0112781 0.0397379 0)
(-0.00765701 0.0504781 0)
(-0.00494373 0.0653367 0)
(-0.000688945 0.0886699 0)
(-0.00857919 0.131974 0)
(-0.00846424 0.203051 0)
(0.126214 0.204343 0)
(-0.427424 0.0548353 0)
(0.471992 0.0747237 0)
(-0.1321 0.137571 0)
(0.0941365 0.133307 0)
(0.172592 0.116765 0)
(0.203694 0.0952399 0)
(0.217983 0.0642006 0)
(0.228003 0.0280968 0)
(0.237155 -0.0093354 0)
(0.24363 -0.0456848 0)
(0.245216 -0.0785339 0)
(0.239291 -0.105239 0)
(0.224513 -0.123792 0)
(0.201412 -0.133389 0)
(0.171902 -0.134498 0)
(0.138539 -0.12836 0)
(0.103589 -0.116225 0)
(0.0693195 -0.0999209 0)
(0.036915 -0.0810565 0)
(0.00874206 -0.062168 0)
(-0.014378 -0.0453085 0)
(-0.0288043 -0.0342241 0)
(-0.0374533 -0.0268563 0)
(-0.0420818 -0.0215143 0)
(-0.0443086 -0.0168638 0)
(-0.0450027 -0.0122834 0)
(-0.0446958 -0.00744616 0)
(-0.043695 -0.00227196 0)
(-0.0420824 0.00317791 0)
(-0.0402054 0.00877689 0)
(-0.0378214 0.0145344 0)
(-0.0348523 0.0205978 0)
(-0.0311837 0.0272824 0)
(-0.0267157 0.0352012 0)
(-0.0215862 0.0456551 0)
(-0.016377 0.0612853 0)
(-0.00856257 0.0855311 0)
(0.000399295 0.122831 0)
(0.00372502 0.182969 0)
(0.166965 0.193351 0)
(-0.333748 0.119132 0)
(0.723893 0.134419 0)
(0.081861 0.115216 0)
(0.149645 0.0992048 0)
(0.222238 0.0804579 0)
(0.243871 0.0698262 0)
(0.248665 0.0474474 0)
(0.255017 0.0171992 0)
(0.261178 -0.0151492 0)
(0.260264 -0.0451618 0)
(0.249829 -0.0698971 0)
(0.229655 -0.0876774 0)
(0.201334 -0.0980827 0)
(0.167246 -0.101469 0)
(0.129908 -0.0988314 0)
(0.0917685 -0.091405 0)
(0.0542265 -0.0798434 0)
(0.0198942 -0.0657545 0)
(-0.0116698 -0.0502938 0)
(-0.0342776 -0.0383496 0)
(-0.0493588 -0.0303053 0)
(-0.058312 -0.0254568 0)
(-0.0634325 -0.0220788 0)
(-0.0661112 -0.0191666 0)
(-0.0671886 -0.0160929 0)
(-0.0670945 -0.012586 0)
(-0.0661244 -0.00851258 0)
(-0.0645344 -0.00384938 0)
(-0.0624396 0.00129845 0)
(-0.0603455 0.00660737 0)
(-0.0581107 0.0119211 0)
(-0.0555372 0.0173758 0)
(-0.05255 0.0232643 0)
(-0.0490485 0.0302891 0)
(-0.0449622 0.0400503 0)
(-0.0401998 0.0549502 0)
(-0.0325169 0.0757073 0)
(-0.0173236 0.0998382 0)
(0.000533574 0.136045 0)
(0.182013 0.163753 0)
(-0.32916 0.181451 0)
(0.191945 0.0880183 0)
(0.225726 0.0997957 0)
(0.246439 0.0700741 0)
(0.242493 0.0395924 0)
(0.239697 0.0117815 0)
(0.234658 -0.0132754 0)
(0.219934 -0.033742 0)
(0.196267 -0.0488234 0)
(0.166031 -0.0585125 0)
(0.131671 -0.0632997 0)
(0.0949672 -0.0635347 0)
(0.0577818 -0.0599183 0)
(0.0220034 -0.0532774 0)
(-0.0130887 -0.043722 0)
(-0.0407168 -0.0345913 0)
(-0.061594 -0.0273977 0)
(-0.0756491 -0.0231492 0)
(-0.08462 -0.0208944 0)
(-0.0901896 -0.0196984 0)
(-0.0936381 -0.0186307 0)
(-0.0955783 -0.0172816 0)
(-0.0962943 -0.0154297 0)
(-0.0959351 -0.0129335 0)
(-0.094646 -0.00967736 0)
(-0.0926337 -0.0055858 0)
(-0.0901341 -0.000702596 0)
(-0.0873798 0.00462392 0)
(-0.0852733 0.00995969 0)
(-0.0833958 0.0153618 0)
(-0.0818416 0.0211843 0)
(-0.0805302 0.0281739 0)
(-0.0790523 0.037536 0)
(-0.0772353 0.0502625 0)
(-0.0742354 0.0649654 0)
(-0.0630332 0.0769681 0)
(-0.0303607 0.0902766 0)
(0.119821 0.144608 0)
(-0.454479 0.239821 0)
(0.451276 0.209568 0)
(0.206697 0.178754 0)
(0.153033 0.118794 0)
(0.139811 0.0639024 0)
(0.128321 0.0256259 0)
(0.114221 0.00148119 0)
(0.0987536 -0.0132812 0)
(0.0777501 -0.0224625 0)
(0.0532093 -0.0280913 0)
(0.0262549 -0.0305255 0)
(-0.00334314 -0.0296533 0)
(-0.0324318 -0.0263493 0)
(-0.0584632 -0.0219508 0)
(-0.080452 -0.0177337 0)
(-0.096907 -0.0151377 0)
(-0.108467 -0.0140406 0)
(-0.116337 -0.0141885 0)
(-0.121946 -0.0147664 0)
(-0.126126 -0.0153361 0)
(-0.12922 -0.0156527 0)
(-0.131298 -0.0155832 0)
(-0.132333 -0.0149897 0)
(-0.132292 -0.0136996 0)
(-0.131183 -0.0115052 0)
(-0.129113 -0.00819922 0)
(-0.126285 -0.0036644 0)
(-0.122803 0.00191165 0)
(-0.119599 0.00780132 0)
(-0.117271 0.013687 0)
(-0.115542 0.0200579 0)
(-0.114159 0.0277454 0)
(-0.112731 0.0376436 0)
(-0.112042 0.0502347 0)
(-0.114448 0.0649853 0)
(-0.115936 0.0805263 0)
(-0.102093 0.0997495 0)
(-0.112545 0.141066 0)
(-0.559424 0.19554 0)
(0.362325 -0.414331 0)
(-0.346047 -0.513047 0)
(-0.218747 -0.0280452 0)
(-0.0927465 0.110955 0)
(-0.0535332 0.0926465 0)
(-0.0313103 0.054568 0)
(-0.0265936 0.0283381 0)
(-0.0316464 0.0115299 0)
(-0.0403768 0.000555804 0)
(-0.0507252 -0.0067186 0)
(-0.0642209 -0.0111321 0)
(-0.0792903 -0.0135367 0)
(-0.0949327 -0.0150461 0)
(-0.110115 -0.0168567 0)
(-0.123789 -0.0193074 0)
(-0.134944 -0.0221206 0)
(-0.143209 -0.0248234 0)
(-0.149342 -0.0268583 0)
(-0.154321 -0.0282582 0)
(-0.158743 -0.0291278 0)
(-0.162734 -0.029531 0)
(-0.166178 -0.0294596 0)
(-0.16887 -0.0288734 0)
(-0.170604 -0.0277084 0)
(-0.171227 -0.0258731 0)
(-0.170691 -0.0232409 0)
(-0.16907 -0.0196486 0)
(-0.166559 -0.0149116 0)
(-0.163358 -0.0088872 0)
(-0.15947 -0.00158945 0)
(-0.155792 0.00657007 0)
(-0.151841 0.0149181 0)
(-0.14692 0.023941 0)
(-0.140194 0.0345148 0)
(-0.131205 0.0472467 0)
(-0.120534 0.0627001 0)
(-0.104735 0.0831388 0)
(-0.0591963 0.111129 0)
(0.0300209 0.12388 0)
(-0.570172 0.0244106 0)
(0.124462 -0.18493 0)
(-0.387717 -0.297512 0)
(-0.343217 -0.0965564 0)
(-0.2648 0.0517192 0)
(-0.211138 0.0837572 0)
(-0.179064 0.0747651 0)
(-0.162868 0.0612136 0)
(-0.156947 0.0511727 0)
(-0.157045 0.0459444 0)
(-0.160279 0.045332 0)
(-0.164604 0.0484815 0)
(-0.168826 0.0544551 0)
(-0.172244 0.0620326 0)
(-0.174585 0.0693343 0)
(-0.176231 0.0744976 0)
(-0.177863 0.0763603 0)
(-0.179954 0.0753207 0)
(-0.182542 0.0729965 0)
(-0.185504 0.0700659 0)
(-0.188701 0.0666639 0)
(-0.192 0.062737 0)
(-0.195277 0.0582444 0)
(-0.19842 0.0532321 0)
(-0.201331 0.0479143 0)
(-0.203914 0.0427283 0)
(-0.206039 0.0382886 0)
(-0.207509 0.0352172 0)
(-0.208055 0.0339205 0)
(-0.207364 0.0343835 0)
(-0.204922 0.0358246 0)
(-0.200609 0.0364062 0)
(-0.194716 0.0362331 0)
(-0.186182 0.0364985 0)
(-0.174007 0.037876 0)
(-0.157151 0.04028 0)
(-0.133597 0.0425334 0)
(-0.0966696 0.0448319 0)
(-0.0321589 0.0554197 0)
(0.153261 0.0876459 0)
(-0.344428 0.0779642 0)
(1.14699 -0.0112477 0)
(-0.295175 -0.323198 0)
(-0.352921 -0.234071 0)
(-0.352277 -0.14968 0)
(-0.328516 -0.108246 0)
(-0.296845 -0.099698 0)
(-0.269571 -0.101994 0)
(-0.249844 -0.107922 0)
(-0.236783 -0.115958 0)
(-0.228428 -0.126074 0)
(-0.222969 -0.138459 0)
(-0.219022 -0.152828 0)
(-0.215668 -0.1679 0)
(-0.212566 -0.181541 0)
(-0.20991 -0.191653 0)
(-0.208193 -0.197337 0)
(-0.207898 -0.199299 0)
(-0.209205 -0.199166 0)
(-0.211999 -0.197724 0)
(-0.216184 -0.195235 0)
(-0.221746 -0.191628 0)
(-0.228707 -0.18669 0)
(-0.237055 -0.180212 0)
(-0.246679 -0.172099 0)
(-0.25728 -0.162466 0)
(-0.268284 -0.15165 0)
(-0.278814 -0.140134 0)
(-0.287743 -0.128382 0)
(-0.293848 -0.116634 0)
(-0.296046 -0.104813 0)
(-0.29355 -0.0927125 0)
(-0.286859 -0.0815 0)
(-0.276856 -0.0718086 0)
(-0.263859 -0.0628451 0)
(-0.248349 -0.0541353 0)
(-0.229296 -0.0458368 0)
(-0.198322 -0.0362762 0)
(-0.144633 -0.015215 0)
(-0.127461 0.0310036 0)
(-0.568264 0.075947 0)
)
;

boundaryField
{
    floor
    {
        type            noSlip;
    }
    ceiling
    {
        type            noSlip;
    }
    sWall
    {
        type            noSlip;
    }
    nWall
    {
        type            noSlip;
    }
    sideWalls
    {
        type            empty;
    }
    glass1
    {
        type            noSlip;
    }
    glass2
    {
        type            noSlip;
    }
    sun
    {
        type            noSlip;
    }
    Table_master
    {
        type            noSlip;
    }
    Table_slave
    {
        type            noSlip;
    }
    inlet
    {
        type            fixedValue;
        value           uniform (0.5 0 0);
    }
    outlet
    {
        type            zeroGradient;
    }
}


// ************************************************************************* //
