/*--------------------------------*- C++ -*----------------------------------*\
  =========                 |
  \\      /  F ield         | OpenFOAM: The Open Source CFD Toolbox
   \\    /   O peration     | Website:  https://openfoam.org
    \\  /    A nd           | Version:  6
     \\/     M anipulation  |
\*---------------------------------------------------------------------------*/
FoamFile
{
    version     2.0;
    format      ascii;
    class       volScalarField;
    location    "43899.9999999564825";
    object      alphat;
}
// * * * * * * * * * * * * * * * * * * * * * * * * * * * * * * * * * * * * * //

dimensions      [1 -1 -1 0 0 0 0];

internalField   nonuniform List<scalar> 
778
(
0.00104102
0.00111057
0.00110656
0.00115457
0.00119857
0.00123853
0.00127573
0.00131159
0.0013477
0.00138609
0.00142272
0.00145753
0.00149185
0.00152877
0.00156729
0.00073671
0.00105579
0.00106435
0.00103859
0.000995464
0.000937811
0.000880377
0.000827514
0.000779887
0.000737192
0.000699138
0.00066495
0.000633799
0.00060472
0.000576418
0.000546826
0.000522236
0.000472671
0.0015247
0.0030074
0.00263939
0.00304651
0.00334189
0.00365497
0.00396723
0.00425496
0.00448657
0.00462145
0.00470084
0.00466844
0.00443601
0.00385963
0.00281912
0.00171628
0.00163638
0.00156642
0.00131887
0.00224673
0.00311456
0.00362725
0.0036513
0.00288097
0.00246398
0.00217482
0.00195525
0.00178062
0.00163182
0.0015003
0.00137792
0.00125818
0.00115071
0.00105805
0.00119146
0.000599355
0.0019342
0.00419897
0.0031134
0.00445344
0.00497614
0.00541831
0.00581976
0.00617298
0.0064722
0.0067069
0.00693448
0.0071743
0.00739523
0.0075276
0.00744246
0.00681603
0.00498586
0.00192158
0.0016635
0.00355805
0.0049665
0.0056339
0.0051251
0.00135238
0.00117601
0.00103985
0.000933276
0.000848457
0.000780006
0.000724194
0.000678815
0.00064344
0.000707266
0.000831893
0.0013167
0.000681942
0.00232918
0.00565872
0.00297906
0.00500688
0.0057807
0.00619445
0.00649845
0.00672315
0.00689073
0.0070266
0.00722011
0.0075476
0.00802603
0.00862825
0.00923429
0.00953436
0.00895568
0.00668494
0.0019135
0.00442735
0.00658812
0.00768823
0.00796162
0.006799
0.00153943
0.00140035
0.00129269
0.00120308
0.00112668
0.00105807
0.000993391
0.000929173
0.000859842
0.000803157
0.000832262
0.0014248
0.000751067
0.00271847
0.00749092
0.00300566
0.00475912
0.00594884
0.00630154
0.00642923
0.00643365
0.00636921
0.00631218
0.00639292
0.00671088
0.00729503
0.00812291
0.00908339
0.00996862
0.0105302
0.0105242
0.00944459
0.00960829
0.00982852
0.0098605
0.0096616
0.00904512
0.0071998
0.00622009
0.00554883
0.00500392
0.00446881
0.00395013
0.00344258
0.00293569
0.00241506
0.00185522
0.00141595
0.00141322
0.0011186
0.000895365
0.00117557
0.0011321
0.00310143
0.00954116
0.00353869
0.00401287
0.00569923
0.00609064
0.00605889
0.00584029
0.00552804
0.0052705
0.00526452
0.0055976
0.00626319
0.00722316
0.00834663
0.00946913
0.0104234
0.0110327
0.0111433
0.0110309
0.0108351
0.010558
0.0102022
0.00974946
0.00908816
0.00845066
0.0078716
0.00731224
0.00670767
0.00606171
0.00537161
0.00463164
0.00383717
0.00299442
0.00223214
0.00167615
0.00130181
0.001452
0.00251365
0.00135591
0.00349221
0.0114363
0.00471567
0.00328757
0.00512039
0.00576077
0.00568939
0.00533608
0.00482381
0.00437323
0.00435999
0.0047805
0.00554251
0.00661614
0.00783711
0.00904539
0.0100843
0.0108276
0.0111689
0.0111417
0.0108966
0.010526
0.0101019
0.00967917
0.0092703
0.00889494
0.0085422
0.00816601
0.00771125
0.00716366
0.00651531
0.00576314
0.00490995
0.0039776
0.00306718
0.00222048
0.00163649
0.00145535
0.00255554
0.00159465
0.00382795
0.0128689
0.0064285
0.00313097
0.00405545
0.00510626
0.00525299
0.00496294
0.00435711
0.00374502
0.00388342
0.00443975
0.00529243
0.0063992
0.00766828
0.00893338
0.0100111
0.0107587
0.0110973
0.0110518
0.010735
0.0102683
0.00976668
0.00932194
0.00897923
0.00873438
0.00854336
0.00833595
0.00804703
0.00764263
0.007107
0.00643683
0.00563827
0.00473516
0.00379749
0.00285632
0.00200678
0.00134245
0.00360452
0.0020712
0.00392911
0.0121732
0.00795118
0.00404866
0.00274988
0.00336777
0.00394186
0.00399104
0.00352374
0.00342477
0.00378035
0.00443499
0.00535778
0.00653242
0.00786319
0.00916738
0.0102408
0.01093
0.0111708
0.0110027
0.0105435
0.0099416
0.00934438
0.00886794
0.00856569
0.00841737
0.00834999
0.0082701
0.00810354
0.00781109
0.00737723
0.00680007
0.00608656
0.0052563
0.00434742
0.00333159
0.00196422
0.00168387
0.00538708
0.00238082
0.00384955
0.0098099
0.00820772
0.00555489
0.00367009
0.00284128
0.00268995
0.00281596
0.00305262
0.00342912
0.00396383
0.00470133
0.00570601
0.00697341
0.00837693
0.00969905
0.0107154
0.0112731
0.0113295
0.0109521
0.0102892
0.00952588
0.00884403
0.00837687
0.00816314
0.00813836
0.00818439
0.00818318
0.00807444
0.0078367
0.00746273
0.00695152
0.00630683
0.0055356
0.00460838
0.00317688
0.00145729
0.00328463
0.00517505
0.002404
0.00360574
0.00838244
0.00793316
0.00635389
0.00489205
0.00393912
0.00346728
0.00336014
0.0035549
0.00391397
0.00443719
0.00521677
0.0063274
0.00771738
0.00919166
0.010484
0.0113576
0.0116799
0.0114485
0.0107784
0.0098684
0.00895599
0.00826158
0.00791366
0.00787456
0.00798897
0.00810295
0.00810482
0.00798927
0.00775838
0.0074076
0.0069301
0.00632078
0.00556492
0.00453376
0.00262937
0.00170101
0.00372743
0.00484345
0.0023629
0.00328284
0.00755714
0.00765095
0.00672355
0.00572162
0.00496671
0.00452198
0.00436311
0.00440267
0.00461986
0.00510171
0.0059743
0.00725916
0.00879786
0.0103008
0.0114594
0.0120515
0.0119967
0.0113613
0.0103302
0.0091784
0.00821439
0.00766941
0.00756191
0.00765974
0.00780936
0.00790612
0.00787798
0.00774363
0.00751106
0.00717114
0.00670239
0.00608672
0.00529287
0.00418499
0.00234033
0.00187377
0.00387282
0.00511304
0.00231983
0.00299323
0.00675922
0.00730433
0.0068674
0.00622504
0.00568493
0.00532564
0.00514995
0.00509832
0.00528587
0.00590009
0.00704181
0.00859585
0.0102577
0.0116565
0.0124875
0.0125969
0.0119989
0.0108621
0.00946759
0.00820084
0.00739209
0.00704476
0.00701123
0.00711425
0.00724048
0.00731689
0.00729187
0.00715711
0.00692435
0.00657674
0.0060785
0.00538828
0.00448599
0.0034029
0.00223115
0.00200929
0.00396783
0.00541439
0.00243722
0.00300414
0.00670836
0.00746317
0.00694964
0.0064297
0.0060038
0.00569674
0.00549768
0.00549223
0.00594829
0.0070327
0.0086495
0.010467
0.0120618
0.0130667
0.0132728
0.0126659
0.0113889
0.00975828
0.00817826
0.00703828
0.00638418
0.00609052
0.00602361
0.00607182
0.00615051
0.00620351
0.00618837
0.00604826
0.00579432
0.00538874
0.00476966
0.00392132
0.00299389
0.00229741
0.00203092
0.00239909
0.00434039
0.00540324
0.00250678
0.00271012
0.00281995
0.00416561
0.00489779
0.00512512
0.00512979
0.00508123
0.00517928
0.00581447
0.00716462
0.00906017
0.0110973
0.0128251
0.0138747
0.0140402
0.0132948
0.0118225
0.00989638
0.00806113
0.00663794
0.00570291
0.00517929
0.00493962
0.00484863
0.00481303
0.00478322
0.00473783
0.00466233
0.00449386
0.00420682
0.00376717
0.0031501
0.00248728
0.00205697
0.00201017
0.00231846
0.00307217
0.00495076
0.00573772
0.0025255
0.000964653
0.00173909
0.00266708
0.00340996
0.00427413
0.0057493
0.00791792
0.0103201
0.0124953
0.0141012
0.0149098
0.0147839
0.0137471
0.0119196
0.00976556
0.00774029
0.00615507
0.00511228
0.00455074
0.00427842
0.00412834
0.00401038
0.00388751
0.00375056
0.0036036
0.00345253
0.00329074
0.00307332
0.00279265
0.00245842
0.00218559
0.00214813
0.00241652
0.00295009
0.00373641
0.00482473
0.00552014
0.00242027
0.00178729
0.00246738
0.003587
0.00558957
0.00831159
0.0110337
0.0131412
0.0146516
0.0155446
0.0157549
0.0151711
0.0136949
0.0115657
0.00920325
0.00707994
0.0055309
0.00465121
0.00424751
0.00406613
0.00395716
0.00385927
0.0037537
0.00364031
0.00352605
0.0034179
0.00331794
0.00321901
0.0031039
0.00296864
0.00282741
0.00273366
0.00279185
0.00308473
0.00359703
0.00422084
0.00471642
0.00472662
0.00234828
0.00323894
0.00786421
0.00725138
0.00648161
0.00822212
0.0109522
0.0132525
0.0148015
0.0156119
0.0157972
0.0154387
0.0144994
0.0129452
0.0108521
0.00854519
0.00653436
0.00523737
0.00462085
0.0043749
0.00426087
0.00417192
0.00407256
0.00395783
0.00383575
0.00371995
0.00362545
0.00356475
0.00354394
0.00355863
0.00358817
0.00360809
0.00363215
0.0036945
0.00384544
0.00414481
0.00463092
0.00528605
0.00600233
0.00636131
0.0024736
0.00309564
0.00597872
0.00771746
0.00987544
0.0109528
0.012064
0.0127088
0.0128616
0.0126106
0.0120116
0.011076
0.00979644
0.008245
0.00666109
0.00538883
0.00461703
0.00425955
0.00411883
0.00405514
0.00400157
0.00393246
0.00384278
0.00373833
0.00363163
0.00354042
0.00348608
0.00349006
0.00356833
0.00372422
0.00393865
0.00415292
0.00432282
0.00449935
0.00474159
0.00510369
0.00562707
0.00633601
0.00733184
0.00690268
0.00275184
0.00289434
0.00248075
0.00246802
0.00253937
0.00259785
0.00251832
0.00236507
0.00218533
0.0020028
0.00182633
0.00165953
0.00150842
0.00138394
0.00129724
0.00125056
0.00123466
0.00123524
0.0012426
0.0012524
0.00126331
0.00127574
0.00129125
0.0013121
0.00134079
0.00137926
0.00142803
0.00148575
0.00154953
0.00161607
0.00168306
0.00175025
0.00181845
0.00188836
0.0019643
0.00205075
0.0021495
0.0022581
0.00237773
0.00252115
0.0025076
)
;

boundaryField
{
    floor
    {
        type            compressible::alphatWallFunction;
        Prt             0.85;
        value           nonuniform List<scalar> 
36
(
0.000219877
0.000104466
0.000149995
0.000151191
0.000147585
0.000141525
0.000133375
0.000125199
0.000117617
0.000110737
0.000104527
9.89559e-05
9.39192e-05
8.93027e-05
8.49682e-05
8.07251e-05
7.62609e-05
7.2529e-05
6.49393e-05
6.49385e-05
8.4167e-05
9.64277e-05
0.000106552
0.000127343
0.000166671
0.000160653
0.000219875
0.000239707
0.000229095
0.000219756
0.000104464
0.000219754
0.000186319
0.000266725
0.000232696
0.000265667
)
;
    }
    ceiling
    {
        type            compressible::alphatWallFunction;
        Prt             0.85;
        value           nonuniform List<scalar> 
43
(
0.000391127
0.000338914
0.000337298
0.000346382
0.000353816
0.000343761
0.000324255
0.00030119
0.000277547
0.000254458
0.000232399
0.00021219
0.000195366
0.000183548
0.000177153
0.000174976
0.000175061
0.000176079
0.000177433
0.000178935
0.000180636
0.000182748
0.000185576
0.000189458
0.000194656
0.000201239
0.00020902
0.000217602
0.000226535
0.000235496
0.000244445
0.000253494
0.000262722
0.000272684
0.000283958
0.000296771
0.000310792
0.000326157
0.000344447
0.000342627
0.000368301
0.000382107
0.000248605
)
;
    }
    sWall
    {
        type            compressible::alphatWallFunction;
        Prt             0.85;
        value           nonuniform List<scalar> 9(0.000507614 0.000477871 0.000438164 0.000402216 0.000403569 0.000366726 0.0004321 0.000414381 0.000389376);
    }
    nWall
    {
        type            compressible::alphatWallFunction;
        Prt             0.85;
        value           nonuniform List<scalar> 
14
(
0.000160205
0.000190922
0.000223073
0.000328632
0.000323399
0.000317981
0.000333193
0.00034192
0.000344215
0.000330709
0.000321514
0.000337985
0.000372855
0.000341934
)
;
    }
    sideWalls
    {
        type            empty;
    }
    glass1
    {
        type            compressible::alphatWallFunction;
        Prt             0.85;
        value           nonuniform List<scalar> 9(0.000143932 0.00020914 0.000262699 0.00031331 0.000362386 0.000410011 0.000458022 0.000498879 0.000511237);
    }
    glass2
    {
        type            compressible::alphatWallFunction;
        Prt             0.85;
        value           nonuniform List<scalar> 2(0.000283581 0.000323325);
    }
    sun
    {
        type            compressible::alphatWallFunction;
        Prt             0.85;
        value           nonuniform List<scalar> 
14
(
0.000147966
0.000157651
0.000157091
0.000163756
0.000169835
0.000175334
0.000180436
0.000185338
0.000190259
0.000195474
0.000200435
0.000205136
0.000209758
0.000214717
)
;
    }
    Table_master
    {
        type            compressible::alphatWallFunction;
        Prt             0.85;
        value           nonuniform List<scalar> 9(0.000191152 0.000166969 0.000148016 0.000132981 0.000120871 0.000110993 0.000102862 9.61959e-05 9.09613e-05);
    }
    Table_slave
    {
        type            compressible::alphatWallFunction;
        Prt             0.85;
        value           nonuniform List<scalar> 9(0.000216415 0.000197669 0.000183013 0.000170709 0.000160137 0.000150572 0.000141488 0.000132401 0.000122507);
    }
    inlet
    {
        type            fixedValue;
        value           uniform 1.94e-05;
    }
    outlet
    {
        type            zeroGradient;
    }
}


// ************************************************************************* //
