/*--------------------------------*- C++ -*----------------------------------*\
  =========                 |
  \\      /  F ield         | OpenFOAM: The Open Source CFD Toolbox
   \\    /   O peration     | Website:  https://openfoam.org
    \\  /    A nd           | Version:  6
     \\/     M anipulation  |
\*---------------------------------------------------------------------------*/
FoamFile
{
    version     2.0;
    format      ascii;
    class       volScalarField;
    location    "1440";
    object      alphat;
}
// * * * * * * * * * * * * * * * * * * * * * * * * * * * * * * * * * * * * * //

dimensions      [1 -1 -1 0 0 0 0];

internalField   nonuniform List<scalar> 
458
(
0.00124412
0.00135525
0.00138594
0.00145226
0.00151335
0.00157119
0.00162906
0.00168781
0.00173585
0.00176606
0.0017695
0.00173739
0.00165866
0.00149198
0.0011318
0.000559114
0.000655487
0.000743174
0.000774892
0.000762752
0.000713767
0.000659574
0.000611084
0.000569081
0.0005326
0.000500744
0.000472869
0.00044815
0.000425637
0.000404283
0.000382841
0.000370094
0.000340111
0.00167644
0.00377427
0.00348158
0.00398922
0.00449535
0.00501602
0.00548325
0.00584464
0.00621599
0.00656373
0.00684277
0.00701226
0.007028
0.00678308
0.00551236
0.00149407
0.00123949
0.00101122
0.000554595
0.00131634
0.00191856
0.0023847
0.00253209
0.00184534
0.00155782
0.00136218
0.0012178
0.00110718
0.0010194
0.000943713
0.000872578
0.000801575
0.000738138
0.000684971
0.000837901
0.000447108
0.00203694
0.0050722
0.00418644
0.00510435
0.0054901
0.00576098
0.00596922
0.00616152
0.00642944
0.00675531
0.00711151
0.00746044
0.00773565
0.00783162
0.00737904
0.00601376
0.00455752
0.00119436
0.000854268
0.00147426
0.0021453
0.00281267
0.00300325
0.000959343
0.000839885
0.000740492
0.00065999
0.000595025
0.000542378
0.000499583
0.000464974
0.000438055
0.000485438
0.000562191
0.000983135
0.000528381
0.00238377
0.00647794
0.00407216
0.00528772
0.00549869
0.00547756
0.005458
0.00555022
0.00576827
0.00609102
0.00650106
0.00695807
0.00735782
0.0076087
0.00755141
0.00716047
0.00614538
0.00337372
0.0013759
0.00175196
0.0024084
0.00321218
0.00390893
0.00394306
0.00108048
0.000990379
0.000929009
0.000883713
0.000845415
0.000807347
0.000771206
0.000733021
0.000688393
0.000648458
0.000639031
0.00117172
0.000608553
0.00273782
0.00836867
0.00427105
0.00501915
0.0053206
0.00514024
0.0049935
0.00507717
0.0053076
0.00564371
0.00608611
0.0065874
0.00697915
0.00717364
0.0071682
0.007031
0.00662568
0.00547871
0.00496535
0.00500121
0.0052924
0.00563929
0.00585199
0.00575558
0.00491031
0.00447574
0.00423618
0.00406462
0.00389096
0.00366752
0.0032874
0.00279784
0.00224105
0.00170473
0.00127866
0.00119136
0.00103427
0.000813324
0.00086076
0.000935588
0.00311664
0.0104976
0.00584875
0.00464683
0.00506411
0.00505324
0.00486586
0.00493529
0.00517051
0.00550711
0.00595605
0.00643676
0.00679945
0.0069148
0.00680432
0.00664678
0.00657591
0.00648129
0.00667609
0.00701403
0.00725098
0.00729288
0.00713279
0.00679831
0.00633143
0.00595218
0.00565681
0.00539658
0.0051411
0.00486995
0.00451979
0.00403969
0.00343243
0.00274556
0.00210984
0.00152994
0.00125752
0.00109688
0.00138118
0.000970514
0.00348933
0.012102
0.00872461
0.00571053
0.00496923
0.00504032
0.00510381
0.00514055
0.00527439
0.00557167
0.0060137
0.00649024
0.00682256
0.00685883
0.00664942
0.00649804
0.00674729
0.00730017
0.0078628
0.00818018
0.00818053
0.00790791
0.00744637
0.00688474
0.00632546
0.00587539
0.00553458
0.00525827
0.00501653
0.00479952
0.00460217
0.00434405
0.00391963
0.00335252
0.00276345
0.00219745
0.00182808
0.00167465
0.00159624
0.00115311
0.00357893
0.0112149
0.00952691
0.00799826
0.0068286
0.00631036
0.00582364
0.005494
0.00549026
0.00577434
0.00623169
0.00670221
0.00698153
0.00691641
0.00665981
0.00672355
0.00743592
0.00802035
0.00832457
0.00831028
0.00797967
0.00740813
0.00670509
0.0059961
0.00540701
0.00499418
0.00471573
0.00451579
0.00436781
0.00426807
0.00422378
0.00422585
0.00411281
0.00377576
0.00344723
0.00326419
0.003344
0.00352998
0.00419317
0.00178524
0.00350477
0.00423034
0.00467525
0.0049248
0.00496209
0.00488889
0.00489235
0.00510067
0.00552058
0.00605439
0.00659956
0.00702823
0.00716486
0.00691742
0.00684712
0.00720849
0.00762618
0.00776916
0.00766508
0.00730216
0.00669404
0.00594316
0.00519349
0.00457844
0.00415278
0.00388177
0.00369996
0.0035618
0.00344399
0.00333341
0.00321997
0.00309539
0.00298241
0.00288459
0.00281978
0.00278323
0.00271376
0.00257078
0.0023971
0.0016667
0.0015797
0.00276043
0.00377652
0.00457227
0.00530119
0.00601032
0.0065718
0.00694774
0.00719169
0.00722428
0.00698596
0.00669716
0.00669813
0.00681763
0.00672573
0.00645483
0.00602777
0.00545268
0.00479143
0.00414535
0.00363106
0.00328465
0.00307226
0.00294191
0.00285532
0.00279224
0.00274388
0.00270818
0.00268812
0.00269437
0.00271009
0.0027241
0.0027248
0.00268167
0.00254869
0.00231442
0.0020242
0.00134113
0.00238085
0.00465378
0.00595168
0.00679236
0.00744596
0.00749587
0.00710387
0.00671007
0.00637251
0.00573437
0.00528087
0.00517542
0.00510388
0.00490401
0.00460293
0.0042298
0.00379227
0.00333197
0.00291691
0.00259411
0.00237148
0.00224312
0.00218296
0.00216999
0.00219121
0.00223841
0.00230446
0.00238086
0.00247032
0.00257297
0.00268281
0.00279066
0.00287838
0.00292218
0.00288127
0.00284558
0.00261996
0.00135861
0.00249159
0.00255349
0.00260943
0.00289322
0.002729
0.00241417
0.00203347
0.00172839
0.00154183
0.00136502
0.00120953
0.00108787
0.000984899
0.000906879
0.00085266
0.00081305
0.000781193
0.000753782
0.00073115
0.000715878
0.000710178
0.000714452
0.000727137
0.000745786
0.000769351
0.000797275
0.0008294
0.000865919
0.000907435
0.000955238
0.00100963
0.00107021
0.00113729
0.00121117
0.0012919
0.00138863
0.00143094
0.0014016
0.00130366
0.00120556
)
;

boundaryField
{
    floor
    {
        type            compressible::alphatWallFunction;
        Prt             0.85;
        value           nonuniform List<scalar> 
36
(
0.000160686
7.82023e-05
9.26087e-05
0.000105493
0.000110108
0.000108345
0.000101195
9.32145e-05
8.60065e-05
7.9706e-05
7.4187e-05
6.93292e-05
6.50466e-05
6.12224e-05
5.77159e-05
5.43681e-05
5.09835e-05
4.89602e-05
4.41645e-05
4.41639e-05
6.10611e-05
7.35468e-05
8.563e-05
0.000115679
0.000122505
0.000133176
0.000160684
0.000210154
0.000175557
0.000143841
7.82014e-05
0.000143839
7.75189e-05
0.000169341
0.000121558
0.000194186
)
;
    }
    ceiling
    {
        type            compressible::alphatWallFunction;
        Prt             0.85;
        value           nonuniform List<scalar> 
43
(
0.000340273
0.000348137
0.000355227
0.000391033
0.000370441
0.000330546
0.000281534
0.000241535
0.000216698
0.000192843
0.000171574
0.000154713
0.000140271
0.000129212
0.00012146
0.00011576
0.000111152
0.000107169
0.000103867
0.000101632
0.000100796
0.000101423
0.000103281
0.000106004
0.000109434
0.000113482
0.000118118
0.000123363
0.000129293
0.000136082
0.000143759
0.000152253
0.000161592
0.000171807
0.000182888
0.000196062
0.000201792
0.000197822
0.000184497
0.000171039
0.000467119
0.000555328
0.000326054
)
;
    }
    sWall
    {
        type            compressible::alphatWallFunction;
        Prt             0.85;
        value           uniform 0.00033903;
    }
    nWall
    {
        type            compressible::alphatWallFunction;
        Prt             0.85;
        value           nonuniform List<scalar> 6(0.000132957 0.000137898 0.000163427 0.000189266 0.000191642 0.000170698);
    }
    sideWalls
    {
        type            empty;
    }
    glass1
    {
        type            compressible::alphatWallFunction;
        Prt             0.85;
        value           nonuniform List<scalar> 9(0.000171659 0.000229166 0.00027599 0.000320287 0.000364869 0.000411952 0.000457736 0.000468805 0.000459996);
    }
    glass2
    {
        type            compressible::alphatWallFunction;
        Prt             0.85;
        value           nonuniform List<scalar> 2(0.000247084 0.000231542);
    }
    sun
    {
        type            compressible::alphatWallFunction;
        Prt             0.85;
        value           nonuniform List<scalar> 
14
(
0.000176209
0.000191379
0.000195547
0.000204521
0.000212746
0.000220499
0.000228224
0.000236037
0.000242403
0.000246396
0.000246849
0.000242604
0.000232163
0.000209871
)
;
    }
    Table_master
    {
        type            compressible::alphatWallFunction;
        Prt             0.85;
        value           nonuniform List<scalar> 9(0.000136677 0.00011964 0.000105245 9.34148e-05 8.37397e-05 7.58034e-05 6.92813e-05 6.39556e-05 5.97783e-05);
    }
    Table_slave
    {
        type            compressible::alphatWallFunction;
        Prt             0.85;
        value           nonuniform List<scalar> 9(0.000153703 0.000141064 0.000132379 0.000125925 0.000120437 0.000114954 0.000109719 0.000104156 9.76099e-05);
    }
    inlet
    {
        type            fixedValue;
        value           uniform 1.94e-05;
    }
    outlet
    {
        type            zeroGradient;
    }
}


// ************************************************************************* //
