/*--------------------------------*- C++ -*----------------------------------*\
  =========                 |
  \\      /  F ield         | OpenFOAM: The Open Source CFD Toolbox
   \\    /   O peration     | Website:  https://openfoam.org
    \\  /    A nd           | Version:  6
     \\/     M anipulation  |
\*---------------------------------------------------------------------------*/
FoamFile
{
    version     2.0;
    format      ascii;
    class       surfaceScalarField;
    location    "2080";
    object      phi;
}
// * * * * * * * * * * * * * * * * * * * * * * * * * * * * * * * * * * * * * //

dimensions      [1 0 -1 0 0 0 0];

internalField   nonuniform List<scalar> 
850
(
-0.00305309
0.00311355
-0.00414576
0.00109267
-0.00501483
0.000869073
-0.00570367
0.000688844
-0.00617575
0.000472078
-0.00639701
0.000221257
-0.00632782
-6.91861e-05
-0.00592405
-0.000403779
-0.00517386
-0.00075019
-0.00412876
-0.0010451
-0.00290051
-0.00122824
-0.00164174
-0.00125877
-0.000539236
-0.00110251
0.000135787
-0.000675023
0.000138138
-0.000922412
0.000926068
-0.000689995
-0.000232417
-6.07178e-05
-0.000629277
0.000542726
-0.000603444
0.00100189
-0.000459165
0.00125845
-0.000256562
0.00136657
-0.000108114
0.00141939
-5.28175e-05
0.00144974
-3.03576e-05
0.00146481
-1.50637e-05
0.00146842
-3.60776e-06
0.00146142
6.9953e-06
0.00143817
2.32526e-05
0.00137964
5.85239e-05
0.00125372
0.000125926
0.00105012
0.000203595
0.000793459
0.000256663
0.000798298
-0.00220745
0.0054844
-0.00329508
0.0021803
-0.00420828
0.00178227
-0.00490603
0.0013866
-0.00538754
0.000953583
-0.00563048
0.000464202
-0.00559448
-0.000105194
-0.00524032
-0.00075794
-0.00456686
-0.00142365
-0.00364286
-0.00196909
-0.00258821
-0.00228289
-0.0015417
-0.00230529
-0.000628854
-0.00201535
9.27558e-05
-0.00139663
0.00087258
-0.000641686
0.00114851
-0.000272148
0.000956805
0.000196067
0.000969494
4.15958e-05
0.000895473
0.000421879
-0.000612699
0.000786737
-0.000994136
0.0010997
-0.000916406
0.00135054
-0.000710008
0.001407
-0.000313026
0.00141514
-0.000116251
0.00142586
-6.35405e-05
0.00143485
-3.93458e-05
0.00144012
-2.03308e-05
0.00144229
-5.77709e-06
0.00144189
7.38931e-06
0.00143642
2.87304e-05
0.00139996
9.49824e-05
0.00124707
0.000278812
0.000978596
0.000472071
0.000644632
0.000590628
0.00145531
-0.00156233
0.00729715
-0.00251035
0.00312832
-0.00334297
0.00261489
-0.00396552
0.00200915
-0.00441309
0.00140115
-0.00466162
0.000712725
-0.00465597
-0.000110841
-0.00433471
-0.0010792
-0.00371321
-0.00204515
-0.00288883
-0.00279348
-0.00198675
-0.00318498
-0.00112282
-0.00316921
-0.000373613
-0.00276456
0.000240373
-0.00201062
0.000751876
-0.00115319
0.000899264
-0.000419536
0.000707425
0.000387906
0.00168818
0.00143729
-0.000527976
0.0016328
-0.000808216
0.0015752
-0.000936538
0.00160849
-0.000949693
0.00181175
-0.000913266
0.00149888
0.00138278
0.00131939
0.0012802
0.00126003
0.0012544
0.00126195
0.00129083
0.00138597
0.00115893
0.000505851
0.000870033
0.000760966
0.000498907
0.000961754
0.00197278
-0.00109548
0.00871729
-0.00185228
0.00388512
-0.0024366
0.00319921
-0.00288268
0.00245523
-0.0032278
0.00174628
-0.00344067
0.000925589
-0.00344208
-0.000109424
-0.0031237
-0.00139758
-0.00254786
-0.00262099
-0.00184617
-0.00349517
-0.00113053
-0.00390061
-0.000480817
-0.00381893
6.56588e-05
-0.00331103
0.000526238
-0.0024712
0.000902329
-0.00152928
0.00111942
-0.000636628
0.00130363
0.000203699
0.0022574
0.000734406
0.00216772
0.00010162
0.00199492
-0.000355173
0.00190896
-0.000722262
0.00179818
-0.000825751
0.00166599
-0.000817504
0.00143505
-0.000682325
0.00175864
-0.000323751
0.0019363
-0.000177813
0.00206723
-0.000131078
0.00216801
-0.000100932
0.00222822
-6.0368e-05
0.00222565
2.41477e-06
0.00213275
9.27501e-05
0.00191319
0.00021941
0.00150703
0.000406006
0.00126966
0.000743221
0.000902417
0.00112821
0.000384099
0.00148007
0.00238052
-0.000756058
0.00986107
-0.00132707
0.00445614
-0.00150965
0.00338179
-0.00168825
0.00263383
-0.00185324
0.00191126
-0.00196227
0.00103462
-0.00191381
-0.000157878
-0.00155681
-0.00175458
-0.0010558
-0.003122
-0.000537891
-0.00401307
-7.33967e-05
-0.00436511
0.000305259
-0.00419758
0.000596426
-0.0036022
0.000849292
-0.00272406
0.00106862
-0.00174861
0.00127603
-0.000844034
0.00158672
-0.000106995
0.00203031
0.000290816
0.00206421
6.77223e-05
0.0019969
-0.000287869
0.00181241
-0.000537769
0.00162455
-0.000637886
0.00144746
-0.000640421
0.00131879
-0.000553649
0.00137755
-0.000382512
0.00146561
-0.000265876
0.00155008
-0.000215548
0.00163157
-0.000182418
0.0017017
-0.000130501
0.00174072
-3.66084e-05
0.00172465
0.000108824
0.00163838
0.000305678
0.00148614
0.000558245
0.00133006
0.000899301
0.00115109
0.00130717
0.000804076
0.00182709
0.00101981
0.00216479
-0.0010952
0.00213613
-0.00179345
0.000717869
-0.00172068
-0.00063876
0.0109406
-0.00101442
0.0048318
-0.000633479
0.00300085
-0.000448755
0.0024491
-0.00038415
0.00184666
-0.000303807
0.000954274
-5.20318e-05
-0.000409653
0.000334378
-0.00214099
0.000692079
-0.0034797
0.000951954
-0.00427295
0.001095
-0.00450815
0.00114534
-0.00424792
0.00113924
-0.0035961
0.00111603
-0.00270086
0.00110054
-0.00173312
0.00113269
-0.000876186
0.00126976
-0.000244063
0.00148455
7.60274e-05
0.00153582
1.64546e-05
0.00143785
-0.000189898
0.00126347
-0.000363392
0.00108381
-0.000458229
0.00092652
-0.000483127
0.000821503
-0.000448632
0.00081071
-0.000371719
0.000860062
-0.000315228
0.000936231
-0.000291717
0.00102698
-0.000273166
0.00112581
-0.000229333
0.00122281
-0.000133608
0.00129572
3.59178e-05
0.00133277
0.00026862
0.00134807
0.000542948
0.00138209
0.000865282
0.00148255
0.00120671
0.00168604
0.0016236
0.0020368
0.00181403
0.00233694
0.00183599
0.00182998
0.00122483
0.000174732
-0.000763861
0.0121918
-0.000621498
0.00468944
0.000492228
0.00188712
0.000960551
0.00198078
0.00121788
0.00158932
0.00159936
0.000572802
0.00210263
-0.000912927
0.00243983
-0.00247819
0.00257367
-0.00361354
0.00250617
-0.00420545
0.00227299
-0.00427497
0.00193606
-0.00391099
0.00155914
-0.00321918
0.00120037
-0.00234209
0.000896596
-0.00142934
0.00070503
-0.00068462
0.000653433
-0.000192466
0.000704594
2.48657e-05
0.000712677
8.37217e-06
0.000636417
-0.000113639
0.000509092
-0.000236067
0.000368797
-0.000317934
0.000242902
-0.000357232
0.0001568
-0.000362529
0.000133848
-0.000348768
0.000162865
-0.000344244
0.0002225
-0.000351353
0.000302962
-0.000353628
0.000405252
-0.000331623
0.000534341
-0.000262697
0.000687241
-0.000116982
0.00084517
0.000110691
0.00100717
0.00038095
0.00120902
0.000663435
0.00148362
0.000932115
0.00188401
0.00122321
0.00241742
0.00128061
0.00318505
0.00106837
0.00336164
0.00104824
0.00360519
0.00273592
0.00999917
0.00339168
0.00403369
0.0034493
0.0018295
0.00353494
0.00189514
0.00374618
0.00137809
0.00422207
9.69121e-05
0.00469322
-0.00138408
0.00478829
-0.00257326
0.00451402
-0.00333927
0.00396093
-0.00365236
0.00322983
-0.00354387
0.00242488
-0.00310604
0.00162805
-0.00242235
0.000922108
-0.00163614
0.000347367
-0.000854603
-2.55516e-06
-0.000334699
-0.000140876
-5.4145e-05
-0.000155313
3.93026e-05
-0.000163174
1.6233e-05
-0.00021531
-6.15029e-05
-0.000306131
-0.000145246
-0.000412358
-0.000211707
-0.000511668
-0.000257923
-0.000585925
-0.000288272
-0.000623913
-0.00031078
-0.00063312
-0.000335037
-0.000625288
-0.000359184
-0.000604717
-0.000374198
-0.000566431
-0.000369909
-0.000494205
-0.000334924
-0.000356734
-0.000254452
-0.000146607
-9.94361e-05
0.000104154
0.000130189
0.000388848
0.000378741
0.000707292
0.000613672
0.00108957
0.00084093
0.00150688
0.000863299
0.00189863
0.000676618
0.00120602
0.00174084
0.00509762
0.0105981
0.0146276
0.0125614
0.00389569
0.0112292
0.00322736
0.0103407
0.00226661
0.00953383
0.000903745
0.00853143
-0.00038168
0.00735255
-0.00139437
0.00607931
-0.00206603
0.00476055
-0.0023336
0.00342941
-0.00221273
0.00216441
-0.00184104
0.00100958
-0.00126753
5.64773e-05
-0.000683038
-0.000566033
-0.000232093
-0.000859643
-4.10883e-05
-0.000956783
4.29945e-05
-0.000976458
5.89779e-05
-0.000991862
3.16372e-05
-0.0010353
-1.80601e-05
-0.00110789
-7.26586e-05
-0.00119692
-0.000122674
-0.00128873
-0.000166119
-0.00137435
-0.000202653
-0.00145154
-0.00023359
-0.00152708
-0.000259499
-0.00161023
-0.000276026
-0.00170955
-0.000274884
-0.00183468
-0.000244776
-0.00199853
-0.000171075
-0.00221652
-3.6462e-05
-0.00248301
0.000167052
-0.00280697
0.000454153
-0.00327094
0.00084271
-0.00398815
0.00133087
-0.00502969
0.00188247
-0.00651689
0.00235051
-0.00825534
0.00241507
-0.0077718
0.0012573
-0.00235717
0.00895045
0.00560362
0.00747188
0.00470593
0.00708001
0.00265848
0.00672917
0.00125458
0.00611921
0.000228287
0.00524683
-0.000521996
0.00417827
-0.000997472
0.00298293
-0.00113826
0.00169139
-0.0009212
0.000430536
-0.000580178
-0.000609378
-0.000227616
-0.00127065
-2.17623e-05
-0.00156315
6.04061e-05
-0.00167784
7.3597e-05
-0.0017078
7.29608e-05
-0.00171358
6.47552e-05
-0.00172862
4.66718e-05
-0.00176744
2.07679e-05
-0.00183138
-8.72204e-06
-0.00191294
-4.11172e-05
-0.00200445
-7.46068e-05
-0.00210376
-0.00010334
-0.00221222
-0.000125135
-0.00233324
-0.000138471
-0.00246898
-0.000140293
-0.00261829
-0.000125575
-0.00277575
-8.7315e-05
-0.00292901
-1.78072e-05
-0.00306256
9.70819e-05
-0.00317483
0.000279319
-0.00327576
0.000555089
-0.00337727
0.000944213
-0.00348609
0.00143969
-0.00356959
0.00196598
-0.00356797
0.00234888
-0.00331001
0.00215711
-0.00195001
-0.000102696
-0.00422386
-0.000826087
0.00648302
0.000742144
0.0031377
0.00140788
0.00199274
0.00164682
0.00101564
0.00158302
0.000292087
0.00121205
-0.00015102
0.000529872
-0.000315299
-0.000363545
-0.000244842
-0.00124089
-4.38506e-05
-0.00188624
6.51707e-05
-0.00222701
0.000113153
-0.00235793
0.000109157
-0.00238095
8.34269e-05
-0.00237072
6.33684e-05
-0.00234969
5.19287e-05
-0.00232917
4.4239e-05
-0.00231823
3.57285e-05
-0.00232215
2.46857e-05
-0.00234155
1.06756e-05
-0.00237541
-7.25189e-06
-0.00242401
-2.60033e-05
-0.00248537
-4.19809e-05
-0.0025574
-5.31131e-05
-0.00263756
-5.83065e-05
-0.00272181
-5.60486e-05
-0.00280355
-4.38337e-05
-0.00287332
-1.75445e-05
-0.00291856
2.74372e-05
-0.00291854
9.70582e-05
-0.00284797
0.00020875
-0.00267232
0.000379436
-0.00236025
0.00063215
-0.00190394
0.000983383
-0.00128937
0.00135141
-0.000299688
0.0013592
0.00114764
0.000709781
0.0016426
-0.00059766
-0.00248957
-0.0120486
-0.0155771
-0.00905361
-0.0058885
-0.00387349
-0.00283924
-0.00253213
-0.00267114
-0.00297651
-0.00321285
-0.00324904
-0.00317658
-0.00305629
-0.00294002
-0.00284947
-0.00277895
-0.00271985
-0.00266839
-0.00262539
-0.0025934
-0.00257541
-0.00257538
-0.00259419
-0.00262909
-0.00267525
-0.00272675
-0.00277615
-0.00281351
-0.00282477
-0.00279125
-0.00268834
-0.00247396
-0.00208915
-0.00145189
-0.000463696
0.000892134
0.00225547
0.0029693
0.00237583
)
;

boundaryField
{
    floor
    {
        type            calculated;
        value           nonuniform List<scalar> 
36
(
0
0
0
0
0
0
0
0
0
0
0
0
0
0
0
0
0
0
0
-4.83915e-06
-1.23784e-05
-1.85697e-05
-2.36401e-05
-2.11164e-05
-1.96192e-05
-1.84536e-05
-2.35097e-06
-3.78399e-06
-4.35944e-06
-5.04474e-06
-3.65663e-06
-7.64388e-06
-1.10004e-05
-1.12619e-05
-1.38369e-05
-1.19391e-05
)
;
    }
    ceiling
    {
        type            calculated;
        value           nonuniform List<scalar> 
43
(
-4.18433e-05
-4.1178e-05
-4.04781e-05
-2.74141e-05
-2.22702e-05
-1.86058e-05
-1.503e-05
-1.20048e-05
-9.92951e-06
-8.50213e-06
-7.66647e-06
-7.28631e-06
-7.13854e-06
-7.11145e-06
-7.12455e-06
-7.14607e-06
-7.17802e-06
-7.22086e-06
-7.26745e-06
-7.30793e-06
-7.3153e-06
-7.2763e-06
-7.19282e-06
-7.08147e-06
-6.95273e-06
-6.80946e-06
-6.64868e-06
-6.47525e-06
-6.28392e-06
-6.07891e-06
-5.85924e-06
-5.62536e-06
-5.3766e-06
-5.10604e-06
-4.81151e-06
-4.42495e-06
-4.13956e-06
-4.04932e-06
-4.1815e-06
-3.60384e-06
6.94078e-06
4.17892e-06
-5.33143e-05
)
;
    }
    sWall
    {
        type            calculated;
        value           uniform -0.000241396;
    }
    nWall
    {
        type            calculated;
        value           nonuniform List<scalar> 6(-5.43172e-05 -6.5434e-05 -6.88138e-05 -8.33262e-05 -9.16832e-05 -0.000110141);
    }
    sideWalls
    {
        type            empty;
        value           nonuniform 0();
    }
    glass1
    {
        type            calculated;
        value           nonuniform List<scalar> 9(-6.04583e-05 -0.000163403 -0.000250424 -0.00032465 -0.000387723 -0.000440784 -0.000487283 -0.000543337 -0.000605862);
    }
    glass2
    {
        type            calculated;
        value           nonuniform List<scalar> 2(-0.000286411 -0.000317011);
    }
    sun
    {
        type            calculated;
        value           uniform 0;
    }
    Table_master
    {
        type            calculated;
        value           nonuniform List<scalar> 9(-1.5364e-07 -1.53789e-07 -1.53839e-07 -1.53869e-07 -1.53889e-07 -1.53902e-07 -1.53906e-07 -1.539e-07 -1.5387e-07);
    }
    Table_slave
    {
        type            calculated;
        value           nonuniform List<scalar> 9(1.5353e-07 1.53515e-07 1.53468e-07 1.53431e-07 1.53408e-07 1.53408e-07 1.53413e-07 1.53451e-07 1.53535e-07);
    }
    inlet
    {
        type            calculated;
        value           uniform -0.0106584;
    }
    outlet
    {
        type            calculated;
        value           nonuniform List<scalar> 2(0.0123319 0.00356967);
    }
}


// ************************************************************************* //
