/*--------------------------------*- C++ -*----------------------------------*\
  =========                 |
  \\      /  F ield         | OpenFOAM: The Open Source CFD Toolbox
   \\    /   O peration     | Website:  https://openfoam.org
    \\  /    A nd           | Version:  6
     \\/     M anipulation  |
\*---------------------------------------------------------------------------*/
FoamFile
{
    version     2.0;
    format      ascii;
    class       volScalarField;
    location    "39699.9999991008299";
    object      k;
}
// * * * * * * * * * * * * * * * * * * * * * * * * * * * * * * * * * * * * * //

dimensions      [0 2 -2 0 0 0 0];

internalField   nonuniform List<scalar> 
778
(
0.00158602
0.00180121
0.00178799
0.00194644
0.00209755
0.00223968
0.0023762
0.00251166
0.00265186
0.00280507
0.00295526
0.0031016
0.00324927
0.0034119
0.0035858
0.00079266
0.00162627
0.00165281
0.00157389
0.00144601
0.00128343
0.00113104
0.000999263
0.000887533
0.000793023
0.000713287
0.000645259
0.000586244
0.000533705
0.000484937
0.000436441
0.000398085
0.000326166
0.00340719
0.00643382
0.00268752
0.00274593
0.0028875
0.00305394
0.00323413
0.0034297
0.00364274
0.00387294
0.004125
0.00437894
0.00459509
0.00470081
0.00459547
0.00429908
0.00390779
0.00358056
0.00253689
0.00281335
0.00295629
0.00289904
0.00266618
0.00226659
0.00190673
0.00161009
0.00137011
0.00117615
0.00101729
0.000885487
0.000774226
0.000681412
0.000615418
0.000574964
0.000864422
0.000524308
0.00549121
0.0127823
0.00347804
0.0032119
0.00329712
0.00345484
0.00363608
0.00384008
0.00407023
0.00432677
0.00463488
0.0050105
0.00545126
0.00596164
0.00653368
0.00686307
0.00628023
0.00538715
0.00403623
0.00416828
0.00417254
0.00397603
0.00357912
0.00266757
0.00201731
0.00157738
0.00127071
0.00105027
0.000887638
0.000765139
0.000672237
0.000603992
0.000551729
0.000548935
0.00116472
0.000678622
0.00797429
0.0217608
0.00449151
0.0033905
0.00334114
0.00343762
0.00354892
0.00366829
0.00380839
0.00399061
0.00425845
0.00464808
0.0051715
0.00582651
0.00655704
0.00713748
0.00723057
0.00724547
0.00534164
0.00554697
0.0053733
0.00512359
0.00478597
0.00434817
0.00345651
0.00286022
0.00243741
0.00211133
0.0018518
0.00163317
0.00143962
0.00125951
0.00107856
0.000801445
0.00066035
0.00141939
0.000823047
0.0108775
0.0336382
0.00621366
0.00342478
0.00315791
0.00316654
0.00318915
0.00320942
0.00325163
0.00336052
0.00359414
0.0039889
0.00455398
0.00527857
0.00608987
0.00682088
0.00728549
0.00764423
0.00751529
0.00665165
0.00607061
0.00557687
0.00509787
0.00462923
0.00412371
0.00366656
0.00327603
0.0029384
0.0026321
0.00234856
0.00207994
0.00181912
0.0015555
0.00122275
0.000931685
0.00119022
0.00121693
0.00116915
0.00200489
0.00186172
0.0141763
0.0476028
0.00928567
0.00348994
0.00290821
0.00282236
0.00276406
0.00269926
0.00266394
0.00273417
0.00298041
0.00341424
0.00402464
0.00480072
0.00565795
0.00646571
0.00707193
0.00740824
0.00732274
0.00678806
0.00621296
0.00563545
0.00507337
0.00455589
0.00409177
0.0036963
0.00336368
0.00307424
0.00280729
0.00255204
0.00229954
0.00204279
0.00177432
0.00147197
0.00118004
0.00111403
0.00111312
0.00169421
0.00501681
0.00267294
0.0179938
0.0606091
0.0143627
0.00381982
0.002715
0.00252912
0.00241158
0.00229389
0.00222095
0.00231128
0.00262995
0.00313944
0.00380369
0.00463554
0.0055346
0.00637321
0.00700609
0.0073311
0.00725546
0.00681789
0.00621471
0.00555419
0.00491161
0.00434287
0.00387278
0.00350067
0.0032068
0.00296184
0.00274146
0.00252933
0.00231391
0.00208777
0.00184576
0.00158335
0.00132875
0.00116339
0.00109527
0.00154251
0.0061726
0.00369284
0.0216428
0.0704828
0.0214393
0.00510351
0.00274294
0.00237176
0.00221012
0.002082
0.00202643
0.00221938
0.00264951
0.0032313
0.00393958
0.00477989
0.0057069
0.00658207
0.00723097
0.0075191
0.00738752
0.00689823
0.00619955
0.00542791
0.00469222
0.00406493
0.00357464
0.00321236
0.00294725
0.00274055
0.00256385
0.00239565
0.00222218
0.00203577
0.00183258
0.00161339
0.00139853
0.00123709
0.00116372
0.00207172
0.0134028
0.00622119
0.0228344
0.069491
0.0325365
0.0110606
0.00406912
0.00258794
0.00223581
0.00210338
0.00219061
0.00251278
0.00300054
0.00360287
0.00433565
0.00521904
0.00619406
0.00709705
0.00772535
0.00792937
0.00766955
0.00702981
0.00616901
0.00525149
0.00440947
0.00372339
0.00321685
0.00286854
0.00263483
0.00246823
0.00233536
0.00221042
0.00207856
0.00193255
0.00176976
0.00159278
0.00141846
0.00130385
0.00138357
0.00388211
0.0253636
0.00821394
0.0219183
0.0516292
0.0336434
0.0174376
0.00859185
0.00476246
0.00326339
0.00273161
0.0028551
0.00321242
0.00367347
0.00424809
0.00499921
0.00594504
0.00698267
0.00789594
0.00844879
0.00848999
0.00800984
0.00713066
0.00604801
0.0049594
0.00401478
0.00329224
0.0027983
0.00248845
0.00230162
0.00218344
0.00209509
0.00200993
0.00191447
0.00180298
0.00167429
0.00153243
0.00139492
0.00133851
0.00188268
0.00950603
0.0227695
0.00840631
0.0192317
0.039429
0.0302355
0.0195685
0.0121866
0.00794342
0.00572157
0.00467337
0.00436593
0.00440245
0.00465444
0.00514749
0.0059385
0.00698557
0.00809313
0.0089679
0.00934648
0.00910138
0.00828115
0.007071
0.00572178
0.00446759
0.0034659
0.0027708
0.00234956
0.00211584
0.00199133
0.00192323
0.00187287
0.00181865
0.00175039
0.00166389
0.00155932
0.00144307
0.00134064
0.00141864
0.00349606
0.0105528
0.0185342
0.00811575
0.0159459
0.0315786
0.0266466
0.0195393
0.0139787
0.0102877
0.00803114
0.00675618
0.00605301
0.00573398
0.00578515
0.00627612
0.00721001
0.00841564
0.00956137
0.0102765
0.0103072
0.00959717
0.00829718
0.0066803
0.00506837
0.00372904
0.00279624
0.00223812
0.00195834
0.00181781
0.00174792
0.00171327
0.00168538
0.00164994
0.0015995
0.00153028
0.00144304
0.00134796
0.00128293
0.00154784
0.00400321
0.0103026
0.0166394
0.00766584
0.0132622
0.025664
0.0233446
0.0186883
0.0145844
0.01159
0.00954601
0.00821214
0.00730247
0.00684286
0.00696043
0.0077187
0.00897037
0.0103469
0.0113804
0.0116814
0.0110931
0.0096976
0.00780263
0.00578002
0.00403804
0.00284306
0.00220024
0.00186916
0.00170584
0.00162345
0.00158045
0.00155685
0.00153495
0.00150595
0.00146477
0.00140914
0.00134034
0.001269
0.00124117
0.00151479
0.00354609
0.00924768
0.0170574
0.0078426
0.0133507
0.0224042
0.0220503
0.0177567
0.0143911
0.0118939
0.0100847
0.00876939
0.00791987
0.00777761
0.0084737
0.00985803
0.0114965
0.0128228
0.0133445
0.0127958
0.0112551
0.00898839
0.00653437
0.00432139
0.00296663
0.00222751
0.00186208
0.00168034
0.00158363
0.00152515
0.00148475
0.001454
0.00142451
0.00139134
0.00135165
0.00130592
0.00125962
0.00123201
0.00128412
0.00161638
0.00330102
0.00880045
0.0147349
0.00875509
0.0108764
0.0117604
0.012922
0.0125521
0.0113741
0.0100742
0.00894584
0.00820381
0.00830748
0.00942078
0.0112841
0.0133248
0.0148803
0.0154308
0.0147371
0.0128125
0.0101271
0.00702267
0.00463896
0.00312929
0.0023426
0.00196419
0.00177858
0.00167335
0.00159966
0.00153715
0.00147863
0.00142399
0.00137521
0.00133054
0.00129135
0.00126959
0.00129483
0.00141984
0.00171662
0.00232843
0.00388276
0.0094838
0.0135773
0.00894371
0.00354551
0.00482623
0.00599733
0.00659937
0.00727466
0.00879863
0.0113195
0.0141365
0.0165167
0.0178994
0.017943
0.0165943
0.0140882
0.0105417
0.00727689
0.00480162
0.00330611
0.00255052
0.00220869
0.00204628
0.00195143
0.0018786
0.00180968
0.00173659
0.00165657
0.00157318
0.00150182
0.00145427
0.00144193
0.00149984
0.00169122
0.00209293
0.00277451
0.00385567
0.00574044
0.0101278
0.0152234
0.00879179
0.00444448
0.00628377
0.0080939
0.0110033
0.0146852
0.0181398
0.0203725
0.0214081
0.0212813
0.019997
0.017419
0.013918
0.0102741
0.00703156
0.00476344
0.00348398
0.00289393
0.00264787
0.00253645
0.00247016
0.0024188
0.00237284
0.00232801
0.0022797
0.00222215
0.00215214
0.00207847
0.00203994
0.00206193
0.0021915
0.00250696
0.00310564
0.00408136
0.00553487
0.00762387
0.0104504
0.0135161
0.00809362
0.0150818
0.0244966
0.0180848
0.0143616
0.016974
0.0206812
0.0228214
0.0235262
0.0230592
0.0216783
0.0196019
0.0169072
0.0137149
0.0103949
0.00749714
0.00544601
0.00432356
0.00382579
0.00361276
0.00349438
0.00340079
0.00331571
0.00324229
0.00318839
0.0031597
0.00315567
0.00316784
0.0031825
0.00319034
0.0032201
0.00330997
0.00350002
0.00386062
0.00448963
0.00550131
0.00702717
0.00925619
0.012295
0.0160346
0.00821637
0.0138113
0.0170577
0.0178548
0.0207521
0.0216709
0.0220856
0.0210914
0.0192846
0.0171694
0.014986
0.0128244
0.0107118
0.00873379
0.00706882
0.00588092
0.0051888
0.0048314
0.00464608
0.00452415
0.00441897
0.00431944
0.00423233
0.0041732
0.00416111
0.00421394
0.00434349
0.00455023
0.00481863
0.00511312
0.00537424
0.00560918
0.00589248
0.00630973
0.00695574
0.00794305
0.00941492
0.0115778
0.0148834
0.0156708
0.0104847
0.0121325
0.00890915
0.0088196
0.00933919
0.00978013
0.0092029
0.00812372
0.00693685
0.00582684
0.00485108
0.00402004
0.00334327
0.00283593
0.00250383
0.00232527
0.00225393
0.00224711
0.00226472
0.00229336
0.00233156
0.00238417
0.00245936
0.00256585
0.00270982
0.00289203
0.00310687
0.00334417
0.00359317
0.0038472
0.00410775
0.00437802
0.00466522
0.00499172
0.00538278
0.00585944
0.00642965
0.00707999
0.00780647
0.00870607
0.00885649
)
;

boundaryField
{
    floor
    {
        type            kqRWallFunction;
        value           nonuniform List<scalar> 
36
(
0.0035858
0.00079266
0.00162627
0.00165281
0.00157389
0.00144601
0.00128343
0.00113104
0.000999263
0.000887533
0.000793023
0.000713287
0.000645259
0.000586244
0.000533705
0.000484937
0.000436441
0.000398085
0.000326166
0.000326166
0.000524308
0.000678622
0.000823047
0.00116915
0.00200489
0.00186172
0.0035858
0.00429908
0.00390779
0.00358056
0.00079266
0.00358056
0.00253689
0.00538715
0.00403623
0.00534164
)
;
    }
    ceiling
    {
        type            kqRWallFunction;
        value           nonuniform List<scalar> 
43
(
0.0121325
0.00890915
0.0088196
0.00933919
0.00978013
0.0092029
0.00812372
0.00693685
0.00582684
0.00485108
0.00402004
0.00334327
0.00283593
0.00250383
0.00232527
0.00225393
0.00224711
0.00226472
0.00229336
0.00233156
0.00238417
0.00245936
0.00256585
0.00270982
0.00289203
0.00310687
0.00334417
0.00359317
0.0038472
0.00410775
0.00437802
0.00466522
0.00499172
0.00538278
0.00585944
0.00642965
0.00707999
0.00780647
0.00870607
0.00885649
0.0108764
0.0117604
0.00444448
)
;
    }
    sWall
    {
        type            kqRWallFunction;
        value           nonuniform List<scalar> 9(0.0219183 0.0192317 0.0159459 0.0132622 0.0133507 0.0108764 0.0150818 0.0138113 0.0121325);
    }
    nWall
    {
        type            kqRWallFunction;
        value           nonuniform List<scalar> 
14
(
0.00186172
0.00267294
0.00369284
0.00840631
0.00811575
0.00766584
0.0078426
0.00875509
0.00894371
0.00879179
0.00809362
0.00821637
0.0104847
0.00885649
)
;
    }
    sideWalls
    {
        type            empty;
    }
    glass1
    {
        type            kqRWallFunction;
        value           nonuniform List<scalar> 9(0.00158602 0.00340719 0.00549121 0.00797429 0.0108775 0.0141763 0.0179938 0.0216428 0.0228344);
    }
    glass2
    {
        type            kqRWallFunction;
        value           nonuniform List<scalar> 2(0.00622119 0.00821394);
    }
    sun
    {
        type            kqRWallFunction;
        value           nonuniform List<scalar> 
14
(
0.00158602
0.00180121
0.00178799
0.00194644
0.00209755
0.00223968
0.0023762
0.00251166
0.00265186
0.00280507
0.00295526
0.0031016
0.00324927
0.0034119
)
;
    }
    Table_master
    {
        type            kqRWallFunction;
        value           nonuniform List<scalar> 9(0.00266757 0.00201731 0.00157738 0.00127071 0.00105027 0.000887638 0.000765139 0.000672237 0.000603992);
    }
    Table_slave
    {
        type            kqRWallFunction;
        value           nonuniform List<scalar> 9(0.00345651 0.00286022 0.00243741 0.00211133 0.0018518 0.00163317 0.00143962 0.00125951 0.00107856);
    }
    inlet
    {
        type            turbulentIntensityKineticEnergyInlet;
        intensity       0.05;
        value           uniform 0.0009375;
    }
    outlet
    {
        type            zeroGradient;
    }
}


// ************************************************************************* //
