/*--------------------------------*- C++ -*----------------------------------*\
  =========                 |
  \\      /  F ield         | OpenFOAM: The Open Source CFD Toolbox
   \\    /   O peration     | Website:  https://openfoam.org
    \\  /    A nd           | Version:  6
     \\/     M anipulation  |
\*---------------------------------------------------------------------------*/
FoamFile
{
    version     2.0;
    format      ascii;
    class       surfaceScalarField;
    location    "39699.9999991008299";
    object      phi;
}
// * * * * * * * * * * * * * * * * * * * * * * * * * * * * * * * * * * * * * //

dimensions      [1 0 -1 0 0 0 0];

internalField   nonuniform List<scalar> 
1482
(
-0.00279978
0.00286382
-0.003484
0.000684217
-0.00414465
0.000660654
-0.0047587
0.00061405
-0.00528007
0.000521361
-0.005692
0.000411938
-0.0059833
0.000291295
-0.00614089
0.00015759
-0.00614742
6.53528e-06
-0.0059769
-0.00017052
-0.00559932
-0.000377579
-0.00498357
-0.00061575
-0.00405939
-0.000924182
-0.00258045
-0.00147894
-0.00257753
-6.47274e-05
6.95815e-05
0.000779751
-0.000844478
0.00143317
-0.000653414
0.00183356
-0.000400395
0.00205606
-0.000222497
0.0021608
-0.000104746
0.00220804
-4.72403e-05
0.00223068
-2.2639e-05
0.00224034
-9.6597e-06
0.00224122
-8.81146e-07
0.00223418
7.04506e-06
0.00221517
1.90073e-05
0.00217086
4.43141e-05
0.002068
0.000102853
0.00185117
0.000216838
0.00149332
0.000357849
0.00102117
0.000472151
0.0010276
-0.00204038
0.00507451
-0.00290849
0.00155233
-0.00369427
0.00144644
-0.00434524
0.00126502
-0.00488245
0.00105857
-0.0053112
0.000840697
-0.00562975
0.00060984
-0.00583129
0.00035913
-0.00590514
8.03862e-05
-0.00584342
-0.000232236
-0.00564028
-0.000580722
-0.00528435
-0.000971688
-0.0047744
-0.00143413
-0.0042885
-0.00196484
-0.00470459
-0.00216144
-0.00311812
-0.00158103
-0.00163469
-0.00147775
-0.00161984
0.00131759
-0.00123779
0.00166182
-0.00118871
0.00191396
-0.000905547
0.00210585
-0.000592287
0.00221391
-0.00033056
0.00222307
-0.000113909
0.00222512
-4.92836e-05
0.00222672
-2.42452e-05
0.00222762
-1.0562e-05
0.00222757
-8.24653e-07
0.00222617
8.44676e-06
0.00222195
2.32234e-05
0.0022093
5.69639e-05
0.00214732
0.000164837
0.00189754
0.000466611
0.00146778
0.000787609
0.000903504
0.00103643
0.00194799
-0.00148827
0.0068207
-0.00235917
0.00242323
-0.00312909
0.00221636
-0.00371325
0.00184918
-0.00418384
0.00152917
-0.00455525
0.0012121
-0.00482928
0.000883877
-0.00500273
0.00053258
-0.00506919
0.000146842
-0.00501955
-0.000281874
-0.00484303
-0.00075725
-0.00453212
-0.0012826
-0.00411761
-0.00184864
-0.00372019
-0.00236226
-0.00329981
-0.00258182
-0.00236836
-0.00251248
-0.0012743
-0.00257181
-0.00288131
0.00115054
-0.00237388
0.00165392
-0.0016921
0.00195235
-0.00120397
0.00214545
-0.000785384
0.00217628
-0.000361393
0.00206253
0.0020134
0.00198931
0.0019789
0.00197823
0.00198683
0.00201021
0.00206732
0.00223231
0.00187405
0.000824878
0.00142623
0.00123543
0.000805958
0.0016567
0.00277998
-0.00110609
0.00825799
-0.00192803
0.00324517
-0.00257004
0.00285837
-0.00303032
0.00230946
-0.00339777
0.00189662
-0.00368647
0.0015008
-0.00389944
0.00109685
-0.00403487
0.000668006
-0.00408525
0.000197221
-0.00403738
-0.000329743
-0.00387894
-0.00091569
-0.00360577
-0.00155577
-0.0032404
-0.00221401
-0.00281868
-0.00278399
-0.00227947
-0.00312103
-0.00155997
-0.00323197
-0.000871935
-0.00325985
-0.000692656
-0.00306059
0.00144405
-0.00212126
0.00137656
-0.00230639
0.00169232
-0.00200786
0.00200492
-0.00151658
0.00227114
-0.00105161
0.00254687
-0.00063712
0.00286226
-0.000315539
0.0030305
-0.0001684
0.00309614
-6.57898e-05
0.00307973
1.62613e-05
0.0029901
8.94735e-05
0.00282834
0.000161604
0.00258674
0.000241451
0.00224242
0.000344159
0.00173813
0.000504137
0.00160229
0.000960721
0.00127564
0.00156207
0.000749534
0.00218281
0.0035638
-0.000803804
0.00945498
-0.00158
0.00402136
-0.00204865
0.00332702
-0.00236433
0.00262513
-0.00260861
0.00214091
-0.00279402
0.00168621
-0.0029256
0.00122842
-0.00300409
0.000746498
-0.00302297
0.000216105
-0.00296566
-0.000387058
-0.00281889
-0.00106247
-0.00257567
-0.00179899
-0.00224254
-0.00254713
-0.00182661
-0.00319992
-0.00132175
-0.00362588
-0.00074555
-0.00380818
-0.00021446
-0.00379094
0.00026285
-0.0035379
0.00112423
-0.00298264
0.00149048
-0.00267265
0.00174955
-0.00226693
0.00200209
-0.00176912
0.00223207
-0.00128158
0.0024466
-0.000851651
0.00264857
-0.000517515
0.00275972
-0.000279544
0.00279694
-0.000103018
0.00277193
4.12723e-05
0.00269108
0.000170323
0.00255694
0.000295749
0.00236843
0.000429958
0.0021234
0.000589187
0.0018302
0.000797339
0.0016262
0.00116472
0.00148762
0.00170065
0.00131315
0.00235728
0.00230584
0.00257112
0.00133467
0.00100609
0.0018708
-0.000507286
0.00198976
-0.000575895
0.0104773
-0.00132486
0.00477033
-0.00158451
0.00358666
-0.00175041
0.00279104
-0.00186433
0.00225482
-0.0019357
0.00175758
-0.001971
0.00126373
-0.00197456
0.000750057
-0.00194318
0.000184721
-0.00185524
-0.000474996
-0.00170099
-0.00121672
-0.00147048
-0.0020295
-0.00116662
-0.00285099
-0.000795179
-0.00357136
-0.00037615
-0.00404491
6.37235e-05
-0.00424805
0.00046887
-0.00419608
0.000843435
-0.00391247
0.00129475
-0.00343395
0.00159392
-0.00297182
0.00179749
-0.00247051
0.00196923
-0.00194085
0.0021213
-0.00143365
0.00225641
-0.00098677
0.0023622
-0.000623297
0.00242148
-0.000338829
0.00243366
-0.000115194
0.00240379
7.11393e-05
0.00233663
0.000237486
0.00223601
0.000396367
0.00210614
0.00055983
0.00195437
0.000740954
0.00179569
0.000956018
0.00170694
0.00125348
0.00176799
0.0016396
0.00198536
0.00213992
0.0022347
0.00232177
0.00174672
0.00149408
0.000824396
0.000415032
0.00291166
-0.000543518
0.011513
-0.00124379
0.0054706
-0.00119216
0.00353504
-0.00120051
0.00279939
-0.00119279
0.0022471
-0.00115919
0.00172398
-0.0011019
0.00120643
-0.00102667
0.000674827
-0.000927857
8.59131e-05
-0.000778744
-0.00062411
-0.000589596
-0.00140587
-0.000350001
-0.0022691
-6.71035e-05
-0.00313389
0.000236622
-0.00387508
0.000545674
-0.00435396
0.000840257
-0.00454263
0.00110306
-0.00445888
0.00133658
-0.004146
0.00156872
-0.00366609
0.00172882
-0.00313192
0.00182916
-0.00257085
0.00189972
-0.00201141
0.00195625
-0.00149019
0.00200395
-0.00103447
0.00203749
-0.000656836
0.00205095
-0.000352294
0.00204066
-0.000104901
0.00200715
0.000104653
0.00195337
0.000291266
0.00188307
0.000466666
0.00180156
0.00064134
0.00171771
0.000824807
0.00164726
0.00102646
0.00163465
0.00126608
0.00172634
0.00154791
0.00194555
0.0019207
0.00220988
0.00205745
0.00222569
0.00147827
0.0016563
0.000984423
0.00467102
-0.000483706
0.0125322
-0.00105172
0.00603861
-0.000697709
0.00318103
-0.000636882
0.00273857
-0.000568441
0.00217866
-0.000463568
0.00161911
-0.000334241
0.0010771
-0.000182606
0.000523192
7.10957e-06
-0.000103803
0.000225568
-0.000842569
0.000465303
-0.0016456
0.000722487
-0.00252628
0.0009784
-0.0033898
0.00120576
-0.00410243
0.00140403
-0.00455222
0.00156454
-0.00470313
0.00168211
-0.00457645
0.00176148
-0.00422536
0.00181497
-0.00371957
0.00182563
-0.00314259
0.00180164
-0.00254686
0.00176201
-0.00197178
0.00172166
-0.00144984
0.00168805
-0.00100086
0.00166103
-0.000629813
0.00163641
-0.000327674
0.00160906
-7.75571e-05
0.00157651
0.000137208
0.00153878
0.000328994
0.00149711
0.000508338
0.00145466
0.000683785
0.00141792
0.000861552
0.00139862
0.00104576
0.00142214
0.00124256
0.0015204
0.00144966
0.00174873
0.00169237
0.00206663
0.00173954
0.00220139
0.00134351
0.00170315
0.00148265
0.00674233
0.00297762
0.0101417
0.00202224
0.00699399
0.000869112
0.00433415
0.000370637
0.00323704
0.000213702
0.0023356
0.000270269
0.00156254
0.000424568
0.000922805
0.000638984
0.000308776
0.000898764
-0.000363583
0.00116412
-0.00110792
0.00144268
-0.00192417
0.00170916
-0.00279276
0.00193418
-0.00361481
0.00209371
-0.00426196
0.00218228
-0.00464077
0.0022028
-0.00472365
0.00216426
-0.0045379
0.00208034
-0.00414143
0.00196619
-0.00360542
0.00182737
-0.00300376
0.00167603
-0.00239552
0.00152912
-0.00182487
0.00140131
-0.00132203
0.00130078
-0.000900329
0.00122851
-0.000557546
0.00117931
-0.000278466
0.00114552
-4.37669e-05
0.00112152
0.000161202
0.00110356
0.000346957
0.00108918
0.000522715
0.00107815
0.000694812
0.00107296
0.000866745
0.00107976
0.00103896
0.00111282
0.0012095
0.00119602
0.00136646
0.00139074
0.00149765
0.00172319
0.00140709
0.00186372
0.00120295
0.000537502
0.00280885
0.00766528
0.00403227
0.00624967
0.00366866
0.00735761
0.00254313
0.00545967
0.00188981
0.00389036
0.00153325
0.00269216
0.00138851
0.00170728
0.0014226
0.000888713
0.00159753
0.000133847
0.00185016
-0.000616209
0.00212773
-0.0013855
0.00240742
-0.00220385
0.00265171
-0.00303705
0.002819
-0.00378209
0.00288255
-0.00432551
0.0028395
-0.00459771
0.00270395
-0.0045881
0.00249838
-0.00433233
0.00224713
-0.00389017
0.00197294
-0.00333122
0.00169295
-0.00272378
0.00142448
-0.00212704
0.00118564
-0.00158603
0.000991237
-0.00112763
0.000847591
-0.000756683
0.000753088
-0.000463043
0.000698216
-0.000223593
0.000671495
-1.70456e-05
0.000663683
0.000169014
0.000667528
0.000343112
0.000677857
0.000512386
0.000691494
0.000681175
0.000706175
0.000852064
0.000719743
0.00102539
0.000730113
0.00119913
0.00073102
0.00136555
0.000692143
0.00153653
0.000239081
0.00186014
-0.00119358
0.00263537
-0.0024352
0.00405033
0.00533485
0.0024103
0.0040039
0.00330581
0.0064621
0.0032498
0.00551568
0.00303895
0.0041012
0.00284801
0.0028831
0.00272498
0.00183031
0.00271148
0.000902211
0.00280105
4.42785e-05
0.0029637
-0.000778855
0.00317479
-0.00159659
0.00339217
-0.00242123
0.00355562
-0.00320051
0.00361051
-0.00383698
0.00353048
-0.00424548
0.0033213
-0.00438852
0.00300937
-0.00427616
0.00262921
-0.00395216
0.00221426
-0.00347522
0.00179416
-0.00291112
0.00139276
-0.00232237
0.00103193
-0.0017662
0.000731954
-0.00128606
0.000506843
-0.000902519
0.000355235
-0.000605075
0.000267407
-0.000375214
0.000225949
-0.000182135
0.000215922
-7.01801e-06
0.000226385
0.000158551
0.00024957
0.000319927
0.000280276
0.00048168
0.000314156
0.000647295
0.00034524
0.00082098
0.000363729
0.0010069
0.000352683
0.00121018
0.000278727
0.00143951
4.74503e-05
0.00176782
-0.00066189
0.00256956
-0.00174339
0.00371677
-0.00201463
0.00432144
0.00343776
0.00145741
0.00274075
0.00274904
0.00517047
0.00343309
0.00483163
0.0037191
0.0038152
0.00381768
0.00278452
0.00384617
0.00180182
0.00388313
0.000865252
0.00395339
-2.59738e-05
0.00406437
-0.000889836
0.00420505
-0.00173727
0.00432367
-0.00253987
0.00434948
-0.00322633
0.00423113
-0.00371863
0.00395673
-0.00397107
0.00354896
-0.00398076
0.00304777
-0.00377496
0.00249709
-0.00340147
0.00193565
-0.00291378
0.0013977
-0.00237316
0.000910729
-0.0018354
0.000502309
-0.00135778
0.000192563
-0.000976314
-1.28985e-05
-0.000697057
-0.000131313
-0.00048666
-0.000188946
-0.000317581
-0.00020831
-0.00016277
-0.000202541
-1.27865e-05
-0.000179416
0.000135427
-0.000143554
0.000284065
-9.79447e-05
0.00043607
-4.5972e-05
0.000595322
6.09507e-06
0.000768913
4.57834e-05
0.000967215
4.86136e-05
0.00120735
-3.47343e-05
0.00152286
-0.000286167
0.00201934
-0.000799901
0.00308365
-0.0017342
0.00465132
-0.00203881
0.00462616
0.00153042
0.00217404
0.000792695
0.00294391
0.0044006
0.00359351
0.00418203
0.00416352
0.00324519
0.00449131
0.00245673
0.00466606
0.00162707
0.00478381
0.000747509
0.00489007
-0.000132234
0.00499804
-0.000997811
0.00507705
-0.00181629
0.00506124
-0.00252407
0.00489064
-0.00305573
0.00454308
-0.00337109
0.00403769
-0.00346569
0.00341941
-0.00336248
0.00273897
-0.00309453
0.00204485
-0.00270735
0.00137509
-0.00224401
0.000768864
-0.00176693
0.000254443
-0.00132098
-0.000128554
-0.000974786
-0.000374714
-0.000730155
-0.000512539
-0.000559232
-0.000580401
-0.000418797
-0.000608125
-0.000289855
-0.000610163
-0.00016073
-0.000594376
-2.85725e-05
-0.00056462
0.000105672
-0.000521955
0.0002414
-0.000466515
0.000380631
-0.000399158
0.000527964
-0.000322712
0.000692466
-0.000245028
0.00088953
-0.000184518
0.00114683
-0.000176121
0.00151445
-0.000245201
0.00208847
-0.000247252
0.00308607
-0.000211787
0.00461625
-0.000242899
0.00465766
0.00143051
-0.00158154
0.00261938
0.00111646
0.0017026
0.00334903
0.00194947
0.0043515
0.00224272
0.00485546
0.00195277
0.00517072
0.00131181
0.00540029
0.000517936
0.00558021
-0.000312151
0.0056811
-0.00109871
0.00564052
-0.00177572
0.00540765
-0.00229122
0.00497102
-0.00261913
0.00435876
-0.00275884
0.00362367
-0.0027306
0.00282549
-0.00256431
0.00201383
-0.00228288
0.00123669
-0.00193021
0.000524944
-0.00153226
-7.07018e-05
-0.00117129
-0.000504424
-0.00088726
-0.000771745
-0.00070747
-0.000920141
-0.000581761
-0.00099706
-0.000482312
-0.00102933
-0.000386524
-0.00103448
-0.000284698
-0.00102202
-0.000173188
-0.000997629
-5.29565e-05
-0.000963572
7.16161e-05
-0.000918298
0.000196127
-0.000858713
0.000321045
-0.000782209
0.00045146
-0.000687041
0.000597298
-0.000574665
0.00077715
-0.000453514
0.00102566
-0.000333483
0.00139436
-0.000178344
0.00193323
0.000181714
0.00272609
0.000825027
0.00397323
0.00124624
0.00423677
0.002826
0.00288112
0.00456853
0.00486899
0.001649
0.00535525
0.00175646
0.0055916
0.00171643
0.00582358
0.00107983
0.00601227
0.000329254
0.00607978
-0.000379659
0.00595465
-0.0009736
0.00560375
-0.00142484
0.00503987
-0.00172737
0.00431002
-0.00188931
0.0034724
-0.00192124
0.00258499
-0.00184322
0.00170186
-0.00168119
0.000855081
-0.00143611
8.63184e-05
-0.00116146
-0.000542092
-0.00090386
-0.000984376
-0.000729019
-0.00125622
-0.000615426
-0.00141546
-0.000548246
-0.00150073
-0.000496491
-0.0015403
-0.00044273
-0.00154928
-0.000377524
-0.00153701
-0.000296953
-0.00151022
-0.000199957
-0.00147503
-8.81457e-05
-0.00143633
3.29184e-05
-0.00139304
0.000152831
-0.00133988
0.000267885
-0.0012725
0.00038408
-0.0011873
0.0005121
-0.00108151
0.000671359
-0.000949869
0.000893978
-0.000773065
0.0012174
-0.000485362
0.00164523
8.7278e-05
0.00215314
0.00109937
0.0029611
0.00163455
0.00370161
0.00461921
0.00793126
0.00536613
0.00581067
0.00387707
0.00556214
0.001965
0.00563441
0.0010076
0.0055995
0.000364201
0.00535603
-0.000136169
0.00489354
-0.000511114
0.00425308
-0.000784392
0.00348824
-0.000962542
0.00265151
-0.0010526
0.00178365
-0.0010534
0.000920195
-0.000979777
9.44253e-05
-0.000855432
-0.000635245
-0.000706452
-0.00120865
-0.000588069
-0.00161002
-0.00050252
-0.00187531
-0.00046376
-0.00203855
-0.000452207
-0.00213763
-0.000449172
-0.00219408
-0.000440023
-0.00221928
-0.000417497
-0.00221929
-0.000377459
-0.00219887
-0.000317327
-0.00216314
-0.00023566
-0.00211851
-0.000132765
-0.00207288
-1.27301e-05
-0.00203178
0.000111707
-0.00199366
0.000229748
-0.00195446
0.000344881
-0.00191041
0.000468092
-0.00185429
0.000615303
-0.00176594
0.000805661
-0.00160319
0.00105453
-0.00130181
0.0013435
-0.000718058
0.00156882
0.000484676
0.00175783
0.00104796
0.00313785
0.00583621
0.00410152
0.0015112
0.00450262
0.00347599
0.00373291
0.00273476
0.00323183
0.00150873
0.00288801
0.00070805
0.00252199
0.000229866
0.00207533
-6.44537e-05
0.00153846
-0.000247522
0.000929389
-0.000353485
0.00026425
-0.000387476
-0.000421475
-0.00036769
-0.00107185
-0.000329415
-0.00163627
-0.000291041
-0.00208064
-0.00026211
-0.00240766
-0.0002611
-0.00263048
-0.000279747
-0.00278305
-0.000311232
-0.00289085
-0.000344429
-0.00296831
-0.000371695
-0.00302047
-0.0003878
-0.00304876
-0.000389121
-0.0030539
-0.000372218
-0.00303749
-0.00033364
-0.0030026
-0.000270495
-0.00295384
-0.00018153
-0.00289796
-6.86772e-05
-0.00284571
5.93505e-05
-0.00280525
0.000189206
-0.00277295
0.000312555
-0.00274465
0.000439843
-0.00271791
0.000588734
-0.00268641
0.00077439
-0.00263229
0.00100061
-0.00255664
0.00126788
-0.00258739
0.00159936
-0.00290489
0.00207487
-0.0026768
0.00290917
0.00334319
-0.00261238
-0.0067816
-0.00742526
-0.00747067
-0.00375393
-0.00216017
-0.00167728
0.00139936
-0.000763785
0.0018213
-0.000564705
0.00130969
-0.00064346
0.000786837
-0.000825545
0.000411976
-0.0010601
0.000170121
-0.00134225
3.46426e-05
-0.00167409
-2.16297e-05
-0.0020341
-2.74631e-05
-0.00239495
-6.85233e-06
-0.00273514
1.07484e-05
-0.00303011
3.87585e-06
-0.00325956
-3.27359e-05
-0.00342697
-9.37675e-05
-0.00355239
-0.000154384
-0.00365556
-0.000208095
-0.00374497
-0.000255003
-0.00382118
-0.00029541
-0.00388112
-0.000327735
-0.00392144
-0.000348641
-0.00394023
-0.000353263
-0.00393779
-0.000335945
-0.00391653
-0.000291686
-0.00388018
-0.000217919
-0.00383281
-0.00011619
-0.00377935
5.6635e-06
-0.00372068
0.000130313
-0.00364931
0.00024103
-0.00355937
0.000349848
-0.003444
0.000473455
-0.00329671
0.000627343
-0.00310726
0.000811488
-0.00285618
0.00101714
-0.00262184
0.00136531
-0.00282329
0.00227656
-0.00290838
0.00299443
0.00062804
-0.00736128
0.00103343
-0.0081337
-0.00669826
-0.00718366
-0.00311022
-0.00566132
-0.000122958
-0.00456907
0.000729089
-0.00397913
0.000719813
-0.00372211
0.000529881
-0.00365694
0.000346867
-0.00369871
0.000211952
-0.0037908
0.000126774
-0.00389235
7.99506e-05
-0.00398069
6.08748e-05
-0.00404418
5.6608e-05
-0.00408573
5.22361e-05
-0.00411967
3.77299e-05
-0.00415889
6.39022e-06
-0.0042107
-4.20451e-05
-0.00427301
-9.21163e-05
-0.00434346
-0.000137635
-0.00441951
-0.000178878
-0.00449847
-0.00021632
-0.00457759
-0.000248424
-0.0046541
-0.000271905
-0.00472477
-0.000282391
-0.00478522
-0.000275349
-0.00482964
-0.000247212
-0.00485118
-0.000196462
-0.00484332
-0.000124258
-0.00480307
-3.49132e-05
-0.00472618
5.30703e-05
-0.00460946
0.000123992
-0.00444191
0.00018208
-0.00420854
0.000240003
-0.00389124
0.000310098
-0.00347368
0.000394112
-0.00292147
0.000465192
-0.00201085
0.000454965
-1.78869e-05
0.000283855
0.00193932
0.00103751
0.00275547
0.00157537
-0.00505799
-0.00810473
-0.00816796
-0.00738425
-0.00661764
-0.00604768
-0.00566556
-0.00542149
-0.00526433
-0.00515468
-0.00506395
-0.00497682
-0.00489323
-0.00482346
-0.00478457
-0.00479391
-0.00485327
-0.00495824
-0.00510475
-0.00528922
-0.00550656
-0.00574837
-0.00600179
-0.0062493
-0.00646969
-0.00664013
-0.00673892
-0.00674872
-0.00667073
-0.00652196
-0.00631532
-0.00605116
-0.00571754
-0.00530082
-0.00481415
-0.00433903
-0.00403635
-0.00298135
)
;

boundaryField
{
    floor
    {
        type            calculated;
        value           nonuniform List<scalar> 
36
(
0
0
0
0
0
0
0
0
0
0
0
0
0
0
0
0
0
0
0
-6.43865e-06
-1.68822e-05
-2.60272e-05
-3.4294e-05
-3.49182e-05
-2.88431e-05
-2.8659e-05
-2.92008e-06
-5.44115e-06
-5.68744e-06
-5.90755e-06
-4.8543e-06
-8.9381e-06
-1.02105e-05
-1.28318e-05
-1.44573e-05
-1.54459e-05
)
;
    }
    ceiling
    {
        type            calculated;
        value           nonuniform List<scalar> 
43
(
-5.79219e-05
-6.49052e-05
-6.3449e-05
-5.9664e-05
-5.45401e-05
-4.67066e-05
-3.99724e-05
-3.5143e-05
-3.20425e-05
-3.03298e-05
-2.96974e-05
-2.98822e-05
-3.05848e-05
-3.14401e-05
-3.21398e-05
-3.25749e-05
-3.27609e-05
-3.27765e-05
-3.26223e-05
-3.22695e-05
-3.16909e-05
-3.08852e-05
-2.98953e-05
-2.88137e-05
-2.77631e-05
-2.68584e-05
-2.61687e-05
-2.57034e-05
-2.54212e-05
-2.52442e-05
-2.50671e-05
-2.47778e-05
-2.42929e-05
-2.35653e-05
-2.25842e-05
-2.13824e-05
-2.00437e-05
-1.86639e-05
-1.72691e-05
-1.59862e-05
1.93324e-05
1.51868e-05
-0.00024659
)
;
    }
    sWall
    {
        type            calculated;
        value           nonuniform List<scalar> 9(-0.000140236 -0.000164527 -0.000194266 -0.000225985 -0.000245138 -0.000281072 -0.000423703 -0.000453777 -0.000484037);
    }
    nWall
    {
        type            calculated;
        value           nonuniform List<scalar> 
14
(
-9.0295e-05
-9.75023e-05
-0.000103051
-0.000104758
-0.000117562
-0.000131445
-0.000142588
-0.000149061
-0.000158726
-0.00016947
-0.000184269
-0.000193347
-0.000187861
-0.000209641
)
;
    }
    sideWalls
    {
        type            empty;
        value           nonuniform 0();
    }
    glass1
    {
        type            calculated;
        value           nonuniform List<scalar> 9(-6.40341e-05 -0.00017032 -0.000257921 -0.000331203 -0.000393185 -0.000446389 -0.0004922 -0.000535481 -0.000587165);
    }
    glass2
    {
        type            calculated;
        value           nonuniform List<scalar> 2(-0.000368139 -0.000385409);
    }
    sun
    {
        type            calculated;
        value           uniform 0;
    }
    Table_master
    {
        type            calculated;
        value           nonuniform List<scalar> 9(-1.53992e-07 -1.54109e-07 -1.54141e-07 -1.54161e-07 -1.54174e-07 -1.54179e-07 -1.54177e-07 -1.54163e-07 -1.5411e-07);
    }
    Table_slave
    {
        type            calculated;
        value           nonuniform List<scalar> 9(1.53661e-07 1.53717e-07 1.53716e-07 1.53733e-07 1.53754e-07 1.53798e-07 1.53865e-07 1.53958e-07 1.54085e-07);
    }
    inlet
    {
        type            calculated;
        value           uniform -0.0116484;
    }
    outlet
    {
        type            calculated;
        value           nonuniform List<scalar> 2(0.00981762 0.0122835);
    }
}


// ************************************************************************* //
