/*--------------------------------*- C++ -*----------------------------------*\
  =========                 |
  \\      /  F ield         | OpenFOAM: The Open Source CFD Toolbox
   \\    /   O peration     | Website:  https://openfoam.org
    \\  /    A nd           | Version:  6
     \\/     M anipulation  |
\*---------------------------------------------------------------------------*/
FoamFile
{
    version     2.0;
    format      ascii;
    class       volVectorField;
    location    "39699.9999991008299";
    object      U;
}
// * * * * * * * * * * * * * * * * * * * * * * * * * * * * * * * * * * * * * //

dimensions      [0 1 -1 0 0 0 0];

internalField   nonuniform List<vector> 
778
(
(0.0655971 0.0794074 0)
(-0.155178 0.015765 0)
(-0.164304 0.014624 0)
(-0.19242 0.012275 0)
(-0.216856 0.00872607 0)
(-0.236918 0.00474651 0)
(-0.252049 0.000420797 0)
(-0.261826 -0.00436382 0)
(-0.265734 -0.00980615 0)
(-0.26277 -0.0161868 0)
(-0.250977 -0.0242616 0)
(-0.226284 -0.0348834 0)
(-0.18616 -0.0504094 0)
(-0.144216 -0.0751864 0)
(-0.150099 -0.108588 0)
(0.0546431 0.0355134 0)
(0.0157482 -0.0268936 0)
(0.0449536 -0.0232834 0)
(0.0693812 -0.0161784 0)
(0.084469 -0.010367 0)
(0.0916968 -0.00641796 0)
(0.0945352 -0.00433429 0)
(0.0955613 -0.00331196 0)
(0.0960072 -0.0027271 0)
(0.0961755 -0.00231558 0)
(0.0960516 -0.001952 0)
(0.0955265 -0.00151158 0)
(0.0942692 -0.000756976 0)
(0.0914205 0.000848537 0)
(0.0852114 0.00407409 0)
(0.0736613 0.00778714 0)
(0.0599741 0.0116408 0)
(-0.00787602 0.0300035 0)
(0.258395 0.167395 0)
(-0.161236 0.0483935 0)
(-0.141605 0.0459789 0)
(-0.174007 0.0416133 0)
(-0.199368 0.0356681 0)
(-0.220089 0.0291324 0)
(-0.236122 0.0220651 0)
(-0.247382 0.0142391 0)
(-0.253568 0.0053099 0)
(-0.2539 -0.00513856 0)
(-0.247759 -0.0170717 0)
(-0.234066 -0.0308469 0)
(-0.214167 -0.048083 0)
(-0.197597 -0.0699774 0)
(-0.194092 -0.0826642 0)
(-0.166481 -0.0425668 0)
(-0.105405 -0.0363928 0)
(-0.0983252 -0.0445011 0)
(0.109342 -0.0420737 0)
(0.0644487 -0.0411877 0)
(0.0719018 -0.0323105 0)
(0.0859077 -0.0207682 0)
(0.0938422 -0.0105148 0)
(0.0961026 -0.0036522 0)
(0.0958714 -0.000184668 0)
(0.0954797 0.00126308 0)
(0.0954381 0.0019037 0)
(0.0955152 0.0022705 0)
(0.0955204 0.00258905 0)
(0.0954198 0.00313107 0)
(0.095129 0.00441443 0)
(0.0938717 0.00773392 0)
(0.0882731 0.0167741 0)
(0.0745094 0.0253717 0)
(0.0631328 0.033015 0)
(-0.0518708 0.0636129 0)
(0.429972 0.253958 0)
(-0.194236 0.0847627 0)
(-0.112782 0.0784295 0)
(-0.148246 0.0669519 0)
(-0.170676 0.0554989 0)
(-0.188769 0.0437318 0)
(-0.202607 0.0313567 0)
(-0.212304 0.0180284 0)
(-0.217663 0.00342631 0)
(-0.218032 -0.0126031 0)
(-0.212786 -0.0302999 0)
(-0.20169 -0.049896 0)
(-0.186054 -0.0715732 0)
(-0.169518 -0.0932337 0)
(-0.151145 -0.104594 0)
(-0.120299 -0.0931721 0)
(-0.07959 -0.0949768 0)
(-0.07147 -0.107644 0)
(0.0921452 -0.0881266 0)
(0.0625757 -0.0657632 0)
(0.0743762 -0.0461746 0)
(0.0880227 -0.0293219 0)
(0.0948867 -0.0149947 0)
(0.0920065 -0.012088 0)
(0.0877678 -0.00798502 0)
(0.0853921 -0.00579111 0)
(0.0847029 -0.00455791 0)
(0.0846851 -0.00379413 0)
(0.0849425 -0.0032241 0)
(0.0855943 -0.00259884 0)
(0.087356 -0.00143903 0)
(0.0920441 0.00292424 0)
(0.0902111 0.0251194 0)
(0.0734197 0.0423957 0)
(0.0701129 0.0575607 0)
(-0.0898091 0.101005 0)
(0.578534 0.325845 0)
(-0.240105 0.121816 0)
(-0.0808407 0.109219 0)
(-0.121581 0.0898487 0)
(-0.139013 0.074067 0)
(-0.153072 0.0586401 0)
(-0.163831 0.0427667 0)
(-0.171427 0.0258335 0)
(-0.175642 0.0072306 0)
(-0.175715 -0.0134952 0)
(-0.171034 -0.0364377 0)
(-0.161475 -0.0614349 0)
(-0.147613 -0.087369 0)
(-0.130637 -0.110314 0)
(-0.109681 -0.123223 0)
(-0.0822026 -0.124567 0)
(-0.0525933 -0.126402 0)
(-0.0334702 -0.12322 0)
(0.0162585 -0.0568237 0)
(0.060772 -0.0930133 0)
(0.0684592 -0.0791976 0)
(0.0790932 -0.0588688 0)
(0.0915906 -0.0396548 0)
(0.10293 -0.0210044 0)
(0.115686 -0.0132814 0)
(0.126889 -0.0088696 0)
(0.132531 -0.00563791 0)
(0.13354 -0.00311624 0)
(0.131025 -0.000882836 0)
(0.125565 0.00129072 0)
(0.117039 0.00367099 0)
(0.104683 0.00672197 0)
(0.0854478 0.0111463 0)
(0.0715836 0.0368203 0)
(0.0603328 0.0605718 0)
(0.0763498 0.083465 0)
(-0.117234 0.137391 0)
(0.705707 0.383687 0)
(-0.287678 0.157015 0)
(-0.0477064 0.13378 0)
(-0.0963026 0.106916 0)
(-0.107753 0.087595 0)
(-0.116785 0.0691801 0)
(-0.123573 0.0504647 0)
(-0.128231 0.0306167 0)
(-0.130589 0.00876247 0)
(-0.129784 -0.0157772 0)
(-0.125288 -0.0430375 0)
(-0.116669 -0.0726541 0)
(-0.103953 -0.102811 0)
(-0.0874846 -0.129088 0)
(-0.0675407 -0.145792 0)
(-0.044202 -0.152277 0)
(-0.020343 -0.152389 0)
(0.000196793 -0.143748 0)
(0.0307369 -0.115021 0)
(0.0569291 -0.109375 0)
(0.0705368 -0.0924675 0)
(0.080692 -0.0713145 0)
(0.0907629 -0.0508777 0)
(0.100328 -0.0328429 0)
(0.109458 -0.0194491 0)
(0.116513 -0.0100528 0)
(0.119966 -0.00334242 0)
(0.120184 0.00192309 0)
(0.117781 0.0064764 0)
(0.113131 0.0108302 0)
(0.106268 0.0154947 0)
(0.0971275 0.0211732 0)
(0.0852218 0.0291694 0)
(0.0737037 0.0471699 0)
(0.0632902 0.0712319 0)
(0.0948945 0.0994353 0)
(0.0173001 0.13859 0)
(0.0967071 0.182744 0)
(0.140477 0.14769 0)
(-0.224044 0.202658 0)
(0.810407 0.431983 0)
(-0.331312 0.190689 0)
(-0.0173289 0.150252 0)
(-0.073382 0.117522 0)
(-0.0786086 0.0955143 0)
(-0.0822289 0.0749529 0)
(-0.0844802 0.0543593 0)
(-0.0855133 0.0327474 0)
(-0.0852521 0.00889881 0)
(-0.082571 -0.0183632 0)
(-0.0774022 -0.0489744 0)
(-0.0687753 -0.0824539 0)
(-0.0567834 -0.116468 0)
(-0.0417327 -0.146287 0)
(-0.0247541 -0.165989 0)
(-0.00637192 -0.174503 0)
(0.0120159 -0.172765 0)
(0.0279373 -0.161034 0)
(0.0461136 -0.139357 0)
(0.0625814 -0.122384 0)
(0.0732721 -0.102547 0)
(0.0809664 -0.0805126 0)
(0.0877374 -0.0591851 0)
(0.0939324 -0.0403171 0)
(0.0992852 -0.0251358 0)
(0.103001 -0.0137653 0)
(0.10463 -0.00505604 0)
(0.104219 0.0021514 0)
(0.10207 0.00862918 0)
(0.0984351 0.0148917 0)
(0.0934761 0.0214633 0)
(0.0874316 0.0289779 0)
(0.0805755 0.038355 0)
(0.074863 0.052749 0)
(0.0697221 0.0727377 0)
(0.0918764 0.0985102 0)
(0.0740112 0.10748 0)
(0.090773 0.048436 0)
(0.14629 -0.0354916 0)
(-0.325055 0.105715 0)
(0.879874 0.474696 0)
(-0.368628 0.220976 0)
(0.00370376 0.155569 0)
(-0.0526791 0.121578 0)
(-0.0522279 0.097857 0)
(-0.051046 0.0758288 0)
(-0.0490372 0.0540579 0)
(-0.0465143 0.0315598 0)
(-0.0433154 0.00680833 0)
(-0.0373407 -0.0222509 0)
(-0.0302571 -0.0553087 0)
(-0.0204705 -0.0918749 0)
(-0.00867134 -0.128831 0)
(0.00452119 -0.161192 0)
(0.0175612 -0.181849 0)
(0.0303383 -0.190206 0)
(0.0421434 -0.18724 0)
(0.0524533 -0.174447 0)
(0.0624327 -0.154103 0)
(0.0710228 -0.132456 0)
(0.076564 -0.109448 0)
(0.0800408 -0.0859604 0)
(0.082656 -0.0637969 0)
(0.0849124 -0.0443047 0)
(0.0867685 -0.0282008 0)
(0.0878872 -0.0153908 0)
(0.0880387 -0.00510175 0)
(0.0870706 0.00357719 0)
(0.0851649 0.0113213 0)
(0.082471 0.0186471 0)
(0.0791702 0.0260494 0)
(0.0755518 0.0340275 0)
(0.0720356 0.0431409 0)
(0.07002 0.0546935 0)
(0.0689346 0.06911 0)
(0.082112 0.0881805 0)
(0.0854834 0.0917508 0)
(0.0910262 0.05494 0)
(0.181082 0.0269899 0)
(-0.278334 0.155269 0)
(0.927919 0.517155 0)
(-0.383147 0.234182 0)
(0.0168831 0.13299 0)
(-0.0273416 0.116663 0)
(-0.0265709 0.0949255 0)
(-0.0227609 0.0724309 0)
(-0.017641 0.050109 0)
(-0.0123553 0.0272614 0)
(-0.00536518 0.0018647 0)
(0.00462471 -0.0307096 0)
(0.0143625 -0.0652756 0)
(0.0256635 -0.103254 0)
(0.0372874 -0.140758 0)
(0.0479294 -0.172037 0)
(0.056983 -0.192252 0)
(0.0644437 -0.199774 0)
(0.0701459 -0.195391 0)
(0.0740938 -0.181225 0)
(0.0767971 -0.160157 0)
(0.0781688 -0.136171 0)
(0.0778249 -0.111167 0)
(0.0763404 -0.0866556 0)
(0.0745459 -0.0641064 0)
(0.0729661 -0.0445135 0)
(0.0717364 -0.028247 0)
(0.0707151 -0.015023 0)
(0.0696971 -0.00415022 0)
(0.0683877 0.0051361 0)
(0.0668897 0.0134067 0)
(0.0651776 0.0211375 0)
(0.0633372 0.028745 0)
(0.0615658 0.0365724 0)
(0.0601894 0.0449005 0)
(0.0601223 0.0541975 0)
(0.0613142 0.0644615 0)
(0.0704881 0.0773945 0)
(0.0809171 0.0809334 0)
(0.0816764 0.062057 0)
(0.238643 0.0562734 0)
(-0.549851 0.23408 0)
(1.01128 0.50682 0)
(-0.137222 0.29635 0)
(0.0410846 0.161522 0)
(0.0406069 0.12208 0)
(0.0130872 0.0919581 0)
(0.00866366 0.0653387 0)
(0.0141001 0.04136 0)
(0.0207435 0.0169504 0)
(0.0325846 -0.0110463 0)
(0.0440749 -0.0421521 0)
(0.0559686 -0.076873 0)
(0.0682468 -0.114548 0)
(0.0793587 -0.150967 0)
(0.0878115 -0.180414 0)
(0.0929738 -0.19846 0)
(0.0949716 -0.203675 0)
(0.0942223 -0.197086 0)
(0.0912772 -0.181095 0)
(0.0868119 -0.158737 0)
(0.0812749 -0.13333 0)
(0.0749572 -0.107315 0)
(0.0684589 -0.0825263 0)
(0.0625033 -0.0603162 0)
(0.0576092 -0.0414035 0)
(0.0539617 -0.0258622 0)
(0.0514441 -0.0131925 0)
(0.0497714 -0.0026292 0)
(0.0485369 0.00650545 0)
(0.0476974 0.0146992 0)
(0.0470259 0.0223798 0)
(0.046471 0.02987 0)
(0.0460826 0.0373724 0)
(0.046008 0.0449633 0)
(0.0467445 0.0526675 0)
(0.0484376 0.0601011 0)
(0.0549178 0.0676608 0)
(0.0660623 0.0664097 0)
(0.0631882 0.0407571 0)
(0.291313 0.0716775 0)
(-0.749475 0.306005 0)
(0.779315 0.395704 0)
(0.000875896 0.319486 0)
(0.0934187 0.218904 0)
(0.110647 0.155149 0)
(0.0772223 0.106787 0)
(0.0598443 0.0674882 0)
(0.0582702 0.0356847 0)
(0.0624558 0.00632704 0)
(0.0739232 -0.0235142 0)
(0.0855275 -0.0550923 0)
(0.0977452 -0.0897418 0)
(0.109607 -0.126168 0)
(0.118946 -0.159877 0)
(0.123991 -0.185557 0)
(0.124152 -0.199646 0)
(0.119872 -0.201299 0)
(0.112108 -0.191855 0)
(0.101939 -0.173837 0)
(0.090404 -0.150262 0)
(0.0783454 -0.124165 0)
(0.0664538 -0.098094 0)
(0.0554694 -0.0739794 0)
(0.0461249 -0.0530666 0)
(0.0388933 -0.0357899 0)
(0.0338667 -0.021915 0)
(0.0307791 -0.0106548 0)
(0.0291434 -0.00111357 0)
(0.028475 0.00731451 0)
(0.0284813 0.0150579 0)
(0.0288268 0.0224712 0)
(0.0293594 0.029778 0)
(0.0299761 0.0370878 0)
(0.0305698 0.0443827 0)
(0.0310871 0.0515096 0)
(0.0310058 0.0579424 0)
(0.0313904 0.0633511 0)
(0.0186431 0.0633041 0)
(0.0174326 0.08793 0)
(0.0776562 0.170244 0)
(-0.63483 0.309996 0)
(0.617248 0.220762 0)
(0.00472869 0.298078 0)
(0.113075 0.241518 0)
(0.148357 0.177515 0)
(0.130935 0.123448 0)
(0.11792 0.077748 0)
(0.11507 0.0387808 0)
(0.117263 0.00326841 0)
(0.123667 -0.0308469 0)
(0.131931 -0.0650941 0)
(0.14164 -0.100498 0)
(0.150512 -0.135256 0)
(0.155603 -0.16503 0)
(0.15499 -0.185518 0)
(0.148371 -0.194426 0)
(0.136655 -0.191763 0)
(0.121317 -0.179242 0)
(0.103863 -0.159406 0)
(0.0856647 -0.135149 0)
(0.0678359 -0.109265 0)
(0.0513318 -0.0842439 0)
(0.0370511 -0.0619749 0)
(0.0257605 -0.0435378 0)
(0.0177524 -0.0289737 0)
(0.0127899 -0.0176384 0)
(0.0101833 -0.00836684 0)
(0.00918428 -0.000211645 0)
(0.00932598 0.00729749 0)
(0.0101244 0.014479 0)
(0.0113216 0.0215793 0)
(0.012744 0.0287502 0)
(0.0141918 0.0361064 0)
(0.0153319 0.0437108 0)
(0.0156413 0.0515939 0)
(0.0141715 0.0596531 0)
(0.0102158 0.0689119 0)
(-0.0224368 0.0943464 0)
(-0.0170206 0.139104 0)
(0.0229454 0.186549 0)
(-0.546564 0.215545 0)
(0.570779 0.118359 0)
(-0.0202324 0.258579 0)
(0.113747 0.229855 0)
(0.1651 0.176014 0)
(0.166769 0.126113 0)
(0.164437 0.0809932 0)
(0.165441 0.0398301 0)
(0.168424 0.00145662 0)
(0.172424 -0.0355636 0)
(0.178046 -0.0720277 0)
(0.184245 -0.107575 0)
(0.187929 -0.139474 0)
(0.186086 -0.163904 0)
(0.177346 -0.178091 0)
(0.162163 -0.181249 0)
(0.14208 -0.174253 0)
(0.119035 -0.159101 0)
(0.0947827 -0.1382 0)
(0.070918 -0.114256 0)
(0.0486911 -0.0897789 0)
(0.0292976 -0.0671741 0)
(0.0138051 -0.048221 0)
(0.00285615 -0.033641 0)
(-0.00391586 -0.0226528 0)
(-0.00735395 -0.0143169 0)
(-0.00884308 -0.00704241 0)
(-0.00907442 -0.000185408 0)
(-0.00832635 0.00647778 0)
(-0.00702741 0.0131015 0)
(-0.00525164 0.0198339 0)
(-0.00312428 0.0268225 0)
(-0.000818249 0.034316 0)
(0.00127551 0.0426056 0)
(0.00239728 0.052084 0)
(0.00153967 0.0635838 0)
(-0.00257843 0.0817546 0)
(-0.0328723 0.124178 0)
(-0.0267735 0.178886 0)
(0.000555047 0.181001 0)
(-0.520397 0.0916625 0)
(0.628511 0.0534503 0)
(0.0094271 0.19724 0)
(0.113819 0.196944 0)
(0.175115 0.157906 0)
(0.191359 0.11762 0)
(0.198015 0.07715 0)
(0.203367 0.0370884 0)
(0.208623 -0.0017525 0)
(0.213208 -0.0399124 0)
(0.217598 -0.0767043 0)
(0.219465 -0.109965 0)
(0.215641 -0.136584 0)
(0.204249 -0.154025 0)
(0.185387 -0.161335 0)
(0.160668 -0.159077 0)
(0.132248 -0.148636 0)
(0.102359 -0.132048 0)
(0.0727133 -0.111379 0)
(0.0450847 -0.0891533 0)
(0.0207211 -0.0675948 0)
(0.00125481 -0.0490792 0)
(-0.012209 -0.0353019 0)
(-0.0198989 -0.026006 0)
(-0.0239983 -0.0188863 0)
(-0.02584 -0.0126969 0)
(-0.0263745 -0.00672334 0)
(-0.0260461 -0.000742188 0)
(-0.0249684 0.005275 0)
(-0.0234231 0.0113605 0)
(-0.0213103 0.0176179 0)
(-0.0186572 0.0242277 0)
(-0.0155184 0.0315366 0)
(-0.0121047 0.0400989 0)
(-0.00900305 0.0508708 0)
(-0.00714319 0.065655 0)
(-0.00421884 0.0892848 0)
(-0.016447 0.13532 0)
(-0.0155411 0.204309 0)
(0.109541 0.201965 0)
(-0.482238 0.0358634 0)
(0.47203 0.0747122 0)
(-0.13205 0.137584 0)
(0.0941637 0.133332 0)
(0.172624 0.116799 0)
(0.20372 0.0952813 0)
(0.217999 0.064246 0)
(0.228012 0.0281402 0)
(0.237163 -0.00930328 0)
(0.243647 -0.0456649 0)
(0.24524 -0.0785101 0)
(0.239317 -0.10519 0)
(0.224533 -0.123704 0)
(0.201416 -0.133269 0)
(0.171878 -0.134362 0)
(0.138473 -0.128231 0)
(0.103469 -0.116128 0)
(0.069145 -0.0998806 0)
(0.0366961 -0.0810917 0)
(0.0085181 -0.0622957 0)
(-0.0144977 -0.0455841 0)
(-0.0287779 -0.0345951 0)
(-0.037253 -0.0272443 0)
(-0.0417261 -0.0218099 0)
(-0.0438497 -0.0169658 0)
(-0.0445252 -0.0121274 0)
(-0.0443052 -0.00702641 0)
(-0.0434879 -0.00165665 0)
(-0.0421303 0.00385913 0)
(-0.0404772 0.0094148 0)
(-0.0382439 0.0150719 0)
(-0.0353297 0.0210418 0)
(-0.031634 0.0277277 0)
(-0.0271387 0.0358333 0)
(-0.0221279 0.0466793 0)
(-0.0171748 0.0627047 0)
(-0.00898241 0.0874674 0)
(-0.00148735 0.12834 0)
(0.00076741 0.192359 0)
(0.160303 0.197357 0)
(-0.355268 0.0974865 0)
(0.723922 0.1344 0)
(0.0818319 0.11521 0)
(0.149639 0.0992146 0)
(0.222243 0.0804901 0)
(0.243876 0.0698743 0)
(0.248666 0.0475004 0)
(0.255019 0.0172436 0)
(0.261192 -0.0151265 0)
(0.260295 -0.0451553 0)
(0.249876 -0.0698826 0)
(0.229713 -0.0876277 0)
(0.201389 -0.0979837 0)
(0.167275 -0.101323 0)
(0.129885 -0.0986533 0)
(0.0916683 -0.09122 0)
(0.0540232 -0.0796774 0)
(0.019601 -0.0656496 0)
(-0.012047 -0.0503023 0)
(-0.0345827 -0.0385625 0)
(-0.04953 -0.0307182 0)
(-0.0582883 -0.0260016 0)
(-0.0631872 -0.0226396 0)
(-0.0656592 -0.0195969 0)
(-0.0665852 -0.0162546 0)
(-0.0664388 -0.0123837 0)
(-0.0655543 -0.00792641 0)
(-0.0641926 -0.00296577 0)
(-0.0624404 0.00227034 0)
(-0.060734 0.00745141 0)
(-0.0587033 0.0125223 0)
(-0.0561356 0.0177127 0)
(-0.052891 0.023445 0)
(-0.0488436 0.0305604 0)
(-0.0439273 0.0406771 0)
(-0.0379097 0.0559666 0)
(-0.0279409 0.0774945 0)
(-0.0102765 0.105687 0)
(0.00563466 0.152557 0)
(0.179806 0.171852 0)
(-0.325447 0.157999 0)
(0.191873 0.0880243 0)
(0.22567 0.0998187 0)
(0.246397 0.070123 0)
(0.242459 0.0396515 0)
(0.239685 0.0118222 0)
(0.234673 -0.0132688 0)
(0.219981 -0.0337558 0)
(0.196346 -0.0488232 0)
(0.166126 -0.0584609 0)
(0.13175 -0.0631743 0)
(0.0949921 -0.0633315 0)
(0.0577053 -0.059645 0)
(0.0217944 -0.0529609 0)
(-0.013491 -0.0434031 0)
(-0.0412095 -0.0343878 0)
(-0.0621085 -0.0274088 0)
(-0.0760728 -0.023444 0)
(-0.0848659 -0.0214573 0)
(-0.0901919 -0.0204373 0)
(-0.0933647 -0.0193955 0)
(-0.0950335 -0.0178905 0)
(-0.095526 -0.0157035 0)
(-0.0950453 -0.012732 0)
(-0.0938001 -0.00894152 0)
(-0.092046 -0.00438925 0)
(-0.0899589 0.000692388 0)
(-0.0879322 0.00581714 0)
(-0.0863101 0.0106986 0)
(-0.0846838 0.0155115 0)
(-0.082998 0.0207265 0)
(-0.0809802 0.0271629 0)
(-0.0780349 0.0359592 0)
(-0.0735008 0.0479383 0)
(-0.0652187 0.0620691 0)
(-0.0465096 0.0750544 0)
(-0.0160652 0.0912385 0)
(0.176061 0.140212 0)
(-0.407326 0.224658 0)
(0.451153 0.209667 0)
(0.206449 0.178793 0)
(0.15285 0.118802 0)
(0.139709 0.0638924 0)
(0.128297 0.0255899 0)
(0.114281 0.00142112 0)
(0.0988451 -0.0133427 0)
(0.077869 -0.0224886 0)
(0.0533259 -0.0280277 0)
(0.0263234 -0.0303302 0)
(-0.00339311 -0.0292978 0)
(-0.0326722 -0.0258346 0)
(-0.0589099 -0.0213371 0)
(-0.0810789 -0.0171614 0)
(-0.0976196 -0.0148315 0)
(-0.109137 -0.0141876 0)
(-0.116848 -0.0148802 0)
(-0.122213 -0.0159586 0)
(-0.126087 -0.0168727 0)
(-0.128835 -0.0172983 0)
(-0.130555 -0.0170504 0)
(-0.13127 -0.0159708 0)
(-0.131016 -0.0139147 0)
(-0.129889 -0.0107709 0)
(-0.128076 -0.00651336 0)
(-0.125779 -0.00131393 0)
(-0.12312 0.00423765 0)
(-0.12113 0.00942581 0)
(-0.119654 0.0143876 0)
(-0.11848 0.019744 0)
(-0.117317 0.0262414 0)
(-0.115842 0.0345474 0)
(-0.114627 0.0448829 0)
(-0.114699 0.056493 0)
(-0.111136 0.0680722 0)
(-0.0866396 0.0872169 0)
(-0.0533058 0.147377 0)
(-0.527419 0.234433 0)
(0.361407 -0.415131 0)
(-0.346203 -0.513068 0)
(-0.218694 -0.0277737 0)
(-0.0929518 0.111001 0)
(-0.053664 0.0926109 0)
(-0.0313974 0.0544845 0)
(-0.0266359 0.0282135 0)
(-0.0316283 0.0113879 0)
(-0.0402804 0.000422559 0)
(-0.0506125 -0.00679371 0)
(-0.0641276 -0.0110993 0)
(-0.0792565 -0.0133759 0)
(-0.0950295 -0.0147745 0)
(-0.110436 -0.0165242 0)
(-0.124343 -0.0190609 0)
(-0.135764 -0.021985 0)
(-0.144188 -0.0247649 0)
(-0.150257 -0.0268522 0)
(-0.155 -0.0282941 0)
(-0.159072 -0.0291839 0)
(-0.162631 -0.0295614 0)
(-0.165584 -0.0293922 0)
(-0.167768 -0.0286141 0)
(-0.169059 -0.0271483 0)
(-0.169419 -0.0249058 0)
(-0.168903 -0.0217965 0)
(-0.167662 -0.0177424 0)
(-0.165889 -0.0126901 0)
(-0.163594 -0.00662949 0)
(-0.161058 0.000401204 0)
(-0.158378 0.00750465 0)
(-0.155084 0.0146466 0)
(-0.150761 0.022467 0)
(-0.144941 0.0316528 0)
(-0.138006 0.0424912 0)
(-0.131369 0.0550855 0)
(-0.119316 0.0711486 0)
(-0.0746938 0.0950938 0)
(-0.0561268 0.113857 0)
(-0.600681 0.0742158 0)
(0.123894 -0.185322 0)
(-0.388029 -0.29771 0)
(-0.34339 -0.0964562 0)
(-0.264959 0.0518193 0)
(-0.211295 0.0837585 0)
(-0.179225 0.0747233 0)
(-0.163043 0.0611607 0)
(-0.157132 0.0511421 0)
(-0.157232 0.0459813 0)
(-0.160463 0.0454942 0)
(-0.164798 0.0488394 0)
(-0.169063 0.0550845 0)
(-0.172521 0.0629691 0)
(-0.174831 0.0705381 0)
(-0.176398 0.0759429 0)
(-0.177834 0.0778154 0)
(-0.179737 0.0757917 0)
(-0.182154 0.072152 0)
(-0.185004 0.0679212 0)
(-0.188167 0.063365 0)
(-0.191522 0.058525 0)
(-0.19495 0.0534913 0)
(-0.198336 0.0484941 0)
(-0.201559 0.0439283 0)
(-0.204459 0.040295 0)
(-0.20681 0.0380582 0)
(-0.208328 0.0374629 0)
(-0.208732 0.0383678 0)
(-0.207731 0.0400246 0)
(-0.205021 0.0405996 0)
(-0.200997 0.0397785 0)
(-0.195055 0.0388892 0)
(-0.186573 0.0386232 0)
(-0.174936 0.0394159 0)
(-0.159807 0.0410995 0)
(-0.139732 0.0429274 0)
(-0.105929 0.0466641 0)
(-0.0406459 0.0612771 0)
(0.130747 0.0921034 0)
(-0.346272 0.0646837 0)
(1.14753 -0.0112648 0)
(-0.295859 -0.323478 0)
(-0.353122 -0.234053 0)
(-0.352548 -0.149659 0)
(-0.328787 -0.108263 0)
(-0.297177 -0.0997726 0)
(-0.27001 -0.102128 0)
(-0.250428 -0.108116 0)
(-0.237518 -0.116179 0)
(-0.229261 -0.126232 0)
(-0.223762 -0.138426 0)
(-0.219552 -0.152506 0)
(-0.215686 -0.167361 0)
(-0.211882 -0.181084 0)
(-0.208454 -0.191701 0)
(-0.20607 -0.198162 0)
(-0.205412 -0.200235 0)
(-0.2069 -0.199912 0)
(-0.210432 -0.198017 0)
(-0.215832 -0.19478 0)
(-0.222955 -0.190131 0)
(-0.231634 -0.183927 0)
(-0.241599 -0.176134 0)
(-0.252408 -0.166942 0)
(-0.263408 -0.156776 0)
(-0.273743 -0.146183 0)
(-0.282418 -0.13563 0)
(-0.288412 -0.12532 0)
(-0.290869 -0.115089 0)
(-0.289305 -0.104533 0)
(-0.284168 -0.0943462 0)
(-0.276433 -0.0854922 0)
(-0.266231 -0.0772969 0)
(-0.253655 -0.0690262 0)
(-0.23921 -0.0605333 0)
(-0.221515 -0.0520146 0)
(-0.190155 -0.0415836 0)
(-0.13219 -0.0205432 0)
(-0.114708 0.0223238 0)
(-0.574687 0.0609554 0)
)
;

boundaryField
{
    floor
    {
        type            noSlip;
    }
    ceiling
    {
        type            noSlip;
    }
    sWall
    {
        type            noSlip;
    }
    nWall
    {
        type            noSlip;
    }
    sideWalls
    {
        type            empty;
    }
    glass1
    {
        type            noSlip;
    }
    glass2
    {
        type            noSlip;
    }
    sun
    {
        type            noSlip;
    }
    Table_master
    {
        type            noSlip;
    }
    Table_slave
    {
        type            noSlip;
    }
    inlet
    {
        type            fixedValue;
        value           uniform (0.5 0 0);
    }
    outlet
    {
        type            zeroGradient;
    }
}


// ************************************************************************* //
