/*--------------------------------*- C++ -*----------------------------------*\
  =========                 |
  \\      /  F ield         | OpenFOAM: The Open Source CFD Toolbox
   \\    /   O peration     | Website:  https://openfoam.org
    \\  /    A nd           | Version:  6
     \\/     M anipulation  |
\*---------------------------------------------------------------------------*/
FoamFile
{
    version     2.0;
    format      ascii;
    class       volScalarField;
    location    "43199.9999998138737";
    object      epsilon;
}
// * * * * * * * * * * * * * * * * * * * * * * * * * * * * * * * * * * * * * //

dimensions      [0 2 -3 0 0 0 0];

internalField   nonuniform List<scalar> 
778
(
0.000253122
0.000306373
0.000303051
0.000344259
0.000385159
0.000424999
0.00046447
0.000504758
0.000547596
0.0005957
0.000644094
0.000692405
0.000742288
0.00079855
0.000860229
8.94398e-05
0.000262493
0.000268842
0.000249739
0.000219898
0.000183921
0.000152224
0.000126452
0.000105861
8.94069e-05
7.62619e-05
6.56125e-05
5.6819e-05
4.93556e-05
4.27498e-05
3.65029e-05
3.18068e-05
2.35947e-05
0.000796992
0.00144326
0.000287036
0.000259653
0.000261759
0.000267735
0.000276632
0.000290062
0.000310315
0.00034051
0.000379695
0.000430766
0.000499088
0.000600221
0.000785284
0.00112881
0.000978282
0.000858052
0.000512336
0.000369588
0.00029419
0.000242775
0.0002039
0.000186694
0.000154536
0.000124894
0.000100625
8.14396e-05
6.64907e-05
5.47955e-05
4.56102e-05
3.86902e-05
3.4502e-05
3.27423e-05
6.58056e-05
4.80807e-05
0.00163061
0.00407933
0.000407452
0.000242985
0.000229163
0.000231075
0.000238289
0.000250555
0.000268453
0.000292708
0.000324808
0.000366833
0.000421167
0.000494827
0.000601186
0.000724423
0.000829472
0.00158375
0.00102837
0.000512578
0.000367832
0.000294311
0.00026203
0.000551113
0.000362237
0.000250409
0.000181074
0.000136102
0.000105786
8.46881e-05
6.97567e-05
5.94154e-05
4.51023e-05
3.79561e-05
0.00010833
7.08009e-05
0.00285347
0.00877116
0.000709989
0.000240777
0.00020253
0.000200061
0.000203226
0.000209845
0.000220652
0.000237554
0.000263222
0.000299932
0.000349097
0.000412189
0.000487861
0.00056008
0.000612248
0.000824166
0.00156471
0.00072922
0.000459919
0.000358354
0.000301927
0.000291792
0.000814059
0.000612462
0.000481567
0.000388107
0.000318737
0.000263977
0.000218467
0.00017877
0.000141635
8.36703e-05
5.48016e-05
0.000149058
9.44864e-05
0.00454593
0.015829
0.0013466
0.000258394
0.000175775
0.000166827
0.000165826
0.000167793
0.000173947
0.000187443
0.00021167
0.000248316
0.000297673
0.000359149
0.000427569
0.000488951
0.000528344
0.000582297
0.000627272
0.000483129
0.000393485
0.000331047
0.000282306
0.000248616
0.000247809
0.000226728
0.000202865
0.000180973
0.00016259
0.000146434
0.000131777
0.000118203
0.000105062
8.44463e-05
6.40945e-05
0.000105329
0.000138878
0.000160467
0.00037917
0.000329225
0.00676352
0.0248813
0.00255402
0.000318129
0.000155571
0.000137092
0.000132146
0.000130704
0.000134467
0.000148558
0.000176701
0.000218039
0.000270693
0.000333913
0.000401437
0.000462314
0.000502681
0.000521432
0.00050459
0.000438153
0.000373793
0.00031565
0.000264741
0.000223375
0.000193273
0.000169613
0.000150798
0.000135611
0.000123274
0.000112722
0.000103264
9.45095e-05
8.60858e-05
7.59108e-05
6.52658e-05
7.75639e-05
9.97456e-05
0.000214624
0.00109761
0.000559987
0.00967214
0.0336407
0.00458493
0.000465077
0.000150867
0.000116361
0.000107101
0.000103289
0.000107082
0.000127929
0.000166139
0.000215873
0.000273222
0.000339877
0.000409035
0.00047011
0.000509844
0.000520177
0.000494119
0.000437522
0.000371805
0.000307472
0.000250539
0.00020442
0.000169729
0.000144547
0.000126327
0.000112744
0.000102285
9.37058e-05
8.62026e-05
7.93234e-05
7.27943e-05
6.61478e-05
6.02663e-05
6.36217e-05
7.68303e-05
0.000179557
0.00166142
0.000925917
0.0127591
0.04041
0.00749205
0.000871489
0.000194292
0.000115382
9.73852e-05
9.14525e-05
9.86317e-05
0.000137703
0.000189286
0.000246251
0.000307
0.000373719
0.000444621
0.000507865
0.000547177
0.000550732
0.00051554
0.000451463
0.00037548
0.000300955
0.000236474
0.000185952
0.000149307
0.000123988
0.000106732
9.46005e-05
8.57653e-05
7.8821e-05
7.28948e-05
6.7515e-05
6.24571e-05
5.76553e-05
5.38723e-05
5.5457e-05
7.08309e-05
0.000379448
0.00578863
0.00214718
0.0138273
0.0414591
0.013936
0.00316477
0.000630151
0.000208001
0.000132648
0.000115957
0.000142382
0.000192834
0.000249218
0.000306387
0.000367367
0.000436716
0.000511197
0.000575818
0.000610889
0.000603036
0.000552
0.000470854
0.000378452
0.000290923
0.000218281
0.000164048
0.00012681
0.000102653
8.73415e-05
7.74062e-05
7.07243e-05
6.5716e-05
6.14936e-05
5.76269e-05
5.39568e-05
5.05516e-05
4.81402e-05
5.1321e-05
0.000100051
0.00119655
0.0154952
0.00314463
0.0130038
0.0283687
0.0144168
0.00572719
0.00210422
0.000834397
0.000413513
0.000276719
0.000278805
0.000314372
0.000355916
0.000401671
0.000458759
0.000531327
0.00061057
0.000674474
0.000698881
0.000670512
0.000593575
0.000486512
0.000372605
0.00027076
0.000191264
0.00013588
0.000100788
7.99805e-05
6.80652e-05
6.12867e-05
5.72023e-05
5.42476e-05
5.16775e-05
4.91911e-05
4.67348e-05
4.45087e-05
4.35868e-05
5.2325e-05
0.000209957
0.00375944
0.0115987
0.00328934
0.0106885
0.0193559
0.0120388
0.00630018
0.0031741
0.00167426
0.00098629
0.000678579
0.000559589
0.000516949
0.000510156
0.000531488
0.000584235
0.000663852
0.000748807
0.000806109
0.000807668
0.000743861
0.000627576
0.000485723
0.000347516
0.00023373
0.000152756
0.000102019
7.37402e-05
5.89458e-05
5.1487e-05
4.80568e-05
4.62607e-05
4.49412e-05
4.36329e-05
4.21983e-05
4.07319e-05
3.97398e-05
4.12313e-05
5.7841e-05
0.000247722
0.00296624
0.0103994
0.00338833
0.00807132
0.0137694
0.00969189
0.00593292
0.00356911
0.0022269
0.00149023
0.00109238
0.00086872
0.000743102
0.000685703
0.000690545
0.000751942
0.000847052
0.000934709
0.000970054
0.000926358
0.000804967
0.000634071
0.000451668
0.000293058
0.000177675
0.000107303
6.96411e-05
5.26033e-05
4.44634e-05
4.06527e-05
3.92607e-05
3.86763e-05
3.82252e-05
3.76434e-05
3.69189e-05
3.64192e-05
3.7467e-05
4.45488e-05
7.9179e-05
0.000309553
0.0023368
0.00827877
0.00401492
0.00612361
0.0101688
0.00779175
0.00531259
0.00357009
0.00246901
0.0017878
0.00136801
0.0010927
0.000925866
0.000859504
0.00088809
0.000985804
0.00110157
0.00117324
0.00115195
0.00102656
0.000820476
0.000585174
0.000368217
0.000208623
0.000114744
7.21534e-05
5.2199e-05
4.27477e-05
3.80468e-05
3.57932e-05
3.50015e-05
3.47099e-05
3.44957e-05
3.4239e-05
3.41799e-05
3.54688e-05
4.20718e-05
6.83772e-05
0.000166751
0.000517233
0.00230328
0.00700495
0.00417769
0.00618422
0.00781506
0.00680642
0.0047404
0.00336616
0.00246275
0.001866
0.00146246
0.00119459
0.00106475
0.00107158
0.00118366
0.00133501
0.00144388
0.00144258
0.0013012
0.00104925
0.000740015
0.000456095
0.000238071
0.000131054
8.15657e-05
5.94777e-05
4.85657e-05
4.25131e-05
3.89207e-05
3.68636e-05
3.58805e-05
3.5446e-05
3.52194e-05
3.52536e-05
3.63542e-05
4.1781e-05
6.32916e-05
0.000139544
0.000370707
0.000988655
0.00265502
0.00633012
0.00342009
0.00454676
0.00511646
0.00418635
0.00336245
0.00264019
0.00207047
0.00164929
0.00136192
0.00124471
0.00130113
0.00148135
0.00169342
0.00183301
0.00182352
0.00163963
0.00130011
0.000905804
0.000518239
0.000277875
0.000154555
0.000101094
7.76344e-05
6.56487e-05
5.80989e-05
5.27774e-05
4.90313e-05
4.66142e-05
4.52798e-05
4.4948e-05
4.51816e-05
4.61639e-05
4.93041e-05
5.9864e-05
9.51111e-05
0.000205681
0.000516601
0.00128596
0.00290295
0.00525729
0.00286867
0.00139828
0.00142843
0.00143071
0.00135217
0.00131043
0.00142163
0.00170669
0.00204507
0.00231284
0.00241521
0.00230017
0.00198325
0.00152972
0.000977478
0.000565143
0.00031045
0.000185987
0.00013319
0.000110766
9.88458e-05
9.05675e-05
8.40157e-05
7.89214e-05
7.54511e-05
7.37517e-05
7.37878e-05
7.53738e-05
7.86527e-05
8.32854e-05
9.04453e-05
0.000104941
0.000141703
0.000241827
0.000507114
0.00115031
0.00254887
0.00551832
0.00289208
0.00118804
0.00171374
0.00195128
0.00230676
0.00275316
0.00315929
0.00334194
0.00331227
0.00309304
0.00270371
0.00213334
0.00151225
0.000975063
0.000571772
0.00033915
0.000229585
0.000185144
0.000166384
0.000156108
0.000148586
0.000142436
0.000137718
0.000135011
0.00013501
0.000138254
0.000144893
0.00015453
0.000166519
0.000180991
0.00019811
0.000220878
0.000260079
0.000343575
0.000538547
0.00101726
0.00238188
0.00462672
0.0037
0.00741628
0.00810128
0.00481901
0.0034034
0.0037326
0.00413996
0.00414983
0.00393782
0.00358332
0.00313104
0.00262765
0.00208538
0.00153323
0.00104226
0.000675167
0.000453362
0.00034862
0.000306604
0.000290222
0.000282622
0.000277506
0.000272598
0.000267479
0.0002629
0.000260351
0.000261539
0.00026793
0.000280568
0.000300206
0.000327474
0.000362784
0.00040716
0.000463533
0.000545924
0.000682559
0.000923981
0.00143138
0.00320337
0.0044935
0.00411944
0.00650109
0.00513825
0.00435782
0.00461493
0.00453728
0.00427135
0.00369145
0.00304481
0.00245868
0.00196581
0.00156315
0.00124014
0.000984889
0.000790948
0.000650317
0.000558584
0.000506289
0.000480711
0.000472093
0.000473874
0.000481369
0.000491248
0.000501535
0.000511718
0.000522715
0.000536673
0.00055675
0.000587016
0.000632504
0.000699365
0.000795087
0.000928477
0.00110887
0.00134215
0.00164508
0.00206903
0.00271164
0.00410288
0.00569501
0.00451138
0.00535846
0.00337378
0.00332591
0.00362949
0.00389696
0.00357241
0.00298473
0.00238318
0.00186518
0.00144335
0.00110427
0.000836923
0.000639143
0.000510949
0.00044589
0.000420213
0.000417417
0.000427363
0.000444114
0.000464167
0.000485351
0.000506425
0.000526997
0.000547518
0.000569237
0.000594096
0.000624719
0.000664722
0.000719458
0.00079698
0.000908516
0.00106743
0.00128621
0.00157341
0.00193553
0.00238787
0.00293872
0.00360265
0.00434308
0.00361503
)
;

boundaryField
{
    floor
    {
        Cmu             0.09;
        kappa           0.41;
        E               9.8;
        type            epsilonWallFunction;
        value           nonuniform List<scalar> 
36
(
0.000860229
8.94398e-05
0.000262493
0.000268842
0.000249739
0.000219898
0.000183921
0.000152224
0.000126452
0.000105861
8.94069e-05
7.62619e-05
6.56125e-05
5.6819e-05
4.93556e-05
4.27498e-05
3.65029e-05
3.18068e-05
2.35947e-05
2.35947e-05
4.80807e-05
7.08009e-05
9.44864e-05
0.000160467
0.00037917
0.000329225
0.000860229
0.00112881
0.000978282
0.000858052
8.94398e-05
0.000858052
0.000512336
0.00158375
0.00102837
0.00156471
)
;
    }
    ceiling
    {
        Cmu             0.09;
        kappa           0.41;
        E               9.8;
        type            epsilonWallFunction;
        value           nonuniform List<scalar> 
43
(
0.00535846
0.00337378
0.00332591
0.00362949
0.00389696
0.00357241
0.00298473
0.00238318
0.00186518
0.00144335
0.00110427
0.000836923
0.000639143
0.000510949
0.00044589
0.000420213
0.000417417
0.000427363
0.000444114
0.000464167
0.000485351
0.000506425
0.000526997
0.000547518
0.000569237
0.000594096
0.000624719
0.000664722
0.000719458
0.00079698
0.000908516
0.00106743
0.00128621
0.00157341
0.00193553
0.00238787
0.00293872
0.00360265
0.00434308
0.00361503
0.00454676
0.00511646
0.00118804
)
;
    }
    sWall
    {
        Cmu             0.09;
        kappa           0.41;
        E               9.8;
        type            epsilonWallFunction;
        value           nonuniform List<scalar> 9(0.0130038 0.0106885 0.00807132 0.00612361 0.00618422 0.00454676 0.00741628 0.00650109 0.00535846);
    }
    nWall
    {
        Cmu             0.09;
        kappa           0.41;
        E               9.8;
        type            epsilonWallFunction;
        value           nonuniform List<scalar> 
14
(
0.000329225
0.000559987
0.000925917
0.00328934
0.00338833
0.00401492
0.00417769
0.00342009
0.00286867
0.00289208
0.0037
0.00411944
0.00451138
0.00361503
)
;
    }
    sideWalls
    {
        type            empty;
    }
    glass1
    {
        Cmu             0.09;
        kappa           0.41;
        E               9.8;
        type            epsilonWallFunction;
        value           nonuniform List<scalar> 9(0.000253122 0.000796992 0.00163061 0.00285347 0.00454593 0.00676352 0.00967214 0.0127591 0.0138273);
    }
    glass2
    {
        Cmu             0.09;
        kappa           0.41;
        E               9.8;
        type            epsilonWallFunction;
        value           nonuniform List<scalar> 2(0.00214718 0.00314463);
    }
    sun
    {
        Cmu             0.09;
        kappa           0.41;
        E               9.8;
        type            epsilonWallFunction;
        value           nonuniform List<scalar> 
14
(
0.000253122
0.000306373
0.000303051
0.000344259
0.000385159
0.000424999
0.00046447
0.000504758
0.000547596
0.0005957
0.000644094
0.000692405
0.000742288
0.00079855
)
;
    }
    Table_master
    {
        Cmu             0.09;
        kappa           0.41;
        E               9.8;
        type            epsilonWallFunction;
        value           nonuniform List<scalar> 9(0.000551113 0.000362237 0.000250409 0.000181074 0.000136102 0.000105786 8.46881e-05 6.97567e-05 5.94154e-05);
    }
    Table_slave
    {
        Cmu             0.09;
        kappa           0.41;
        E               9.8;
        type            epsilonWallFunction;
        value           nonuniform List<scalar> 9(0.000814059 0.000612462 0.000481567 0.000388107 0.000318737 0.000263977 0.000218467 0.00017877 0.000141635);
    }
    inlet
    {
        type            turbulentMixingLengthDissipationRateInlet;
        mixingLength    0.01;
        phi             phi;
        k               k;
        value           uniform 0.000471671;
    }
    outlet
    {
        type            zeroGradient;
    }
}


// ************************************************************************* //
