/*--------------------------------*- C++ -*----------------------------------*\
  =========                 |
  \\      /  F ield         | OpenFOAM: The Open Source CFD Toolbox
   \\    /   O peration     | Website:  https://openfoam.org
    \\  /    A nd           | Version:  6
     \\/     M anipulation  |
\*---------------------------------------------------------------------------*/
FoamFile
{
    version     2.0;
    format      ascii;
    class       surfaceScalarField;
    location    "43199.9999998138737";
    object      phi;
}
// * * * * * * * * * * * * * * * * * * * * * * * * * * * * * * * * * * * * * //

dimensions      [1 0 -1 0 0 0 0];

internalField   nonuniform List<scalar> 
1482
(
-0.00279972
0.00286375
-0.00348386
0.000684144
-0.00414451
0.000660646
-0.00475853
0.000614015
-0.00527978
0.000521251
-0.0056915
0.000411723
-0.00598247
0.000290966
-0.00613964
0.000157168
-0.0061457
6.06831e-06
-0.00597473
-0.000170977
-0.00559681
-0.000377918
-0.00498097
-0.000615842
-0.00405705
-0.000923915
-0.00257887
-0.00147818
-0.00257595
-6.31673e-05
6.80222e-05
0.000781265
-0.000844433
0.00143423
-0.000652969
0.00183393
-0.0003997
0.00205575
-0.000221816
0.00216021
-0.000104462
0.00220769
-4.74802e-05
0.00223071
-2.3013e-05
0.00224061
-9.90137e-06
0.00224156
-9.497e-07
0.00223447
7.08814e-06
0.00221539
1.90772e-05
0.00217104
4.43493e-05
0.0020682
0.000102838
0.00185141
0.000216798
0.00149372
0.000357685
0.00102202
0.000471695
0.00102846
-0.00204031
0.00507439
-0.00290835
0.00155218
-0.00369414
0.00144644
-0.00434512
0.00126499
-0.00488226
0.0010584
-0.00531085
0.000840308
-0.00562908
0.000609199
-0.00583017
0.000358256
-0.00590347
7.93634e-05
-0.00584118
-0.00023326
-0.00563754
-0.000581559
-0.00528124
-0.00097214
-0.00477112
-0.00143403
-0.00428515
-0.00196414
-0.00470068
-0.00216042
-0.00311514
-0.0015801
-0.00163292
-0.00147653
-0.00161807
0.00131861
-0.00124038
0.00166349
-0.00118931
0.00191546
-0.00090494
0.00210677
-0.000591001
0.00221419
-0.000329239
0.00222302
-0.000113295
0.00222495
-4.94067e-05
0.00222657
-2.46352e-05
0.00222757
-1.0905e-05
0.00222763
-1.00406e-06
0.00222629
8.42717e-06
0.00222209
2.32792e-05
0.00220943
5.70057e-05
0.00214744
0.000164824
0.00189758
0.000466665
0.00146775
0.000787507
0.000903955
0.0010355
0.0019493
-0.00148818
0.00682049
-0.00235895
0.00242296
-0.00312885
0.00221634
-0.00371299
0.00184913
-0.00418354
0.00152895
-0.00455482
0.00121159
-0.00482862
0.000883
-0.00500171
0.000531349
-0.00506772
0.000145367
-0.00501759
-0.000283389
-0.00484061
-0.000758533
-0.00452938
-0.00128337
-0.00411469
-0.00184872
-0.00371719
-0.00236164
-0.00329686
-0.00258076
-0.00236591
-0.00251105
-0.00127271
-0.00256973
-0.00287794
0.00115092
-0.00237685
0.00165475
-0.00169314
0.00195331
-0.00120351
0.00214628
-0.00078397
0.00217675
-0.000359701
0.0020636
0.00201435
0.00198987
0.00197912
0.00197827
0.00198685
0.00201028
0.00206744
0.00223242
0.00187365
0.000825441
0.00142509
0.00123607
0.000805339
0.00165524
0.00278067
-0.00110597
0.00825767
-0.00192774
0.00324473
-0.00256965
0.00285825
-0.00302987
0.00230935
-0.00339729
0.00189636
-0.00368593
0.00150023
-0.00389878
0.00109585
-0.00403398
0.000666557
-0.00408403
0.000195418
-0.00403576
-0.000331665
-0.00387689
-0.000917398
-0.00360332
-0.00155694
-0.00323763
-0.00221441
-0.00281562
-0.00278365
-0.00227618
-0.00312019
-0.00155657
-0.00323066
-0.000868291
-0.00325801
-0.000687522
-0.00305871
0.00144863
-0.00212071
0.00137863
-0.00230685
0.00169344
-0.00200794
0.00200564
-0.0015157
0.00227169
-0.00105003
0.0025474
-0.000635407
0.00286162
-0.000314375
0.00302924
-0.000167773
0.00309472
-6.56413e-05
0.00307857
1.60048e-05
0.00298946
8.8956e-05
0.00282823
0.000161069
0.00258689
0.000241188
0.00224233
0.000344403
0.00173717
0.000505012
0.00160004
0.000962572
0.0012717
0.00156441
0.000744341
0.0021826
0.00355931
-0.000803672
0.00945453
-0.00157967
0.00402072
-0.00204812
0.0033267
-0.00236368
0.00262491
-0.00260792
0.00214061
-0.00279335
0.00168565
-0.00292494
0.00122744
-0.0030034
0.000745019
-0.00302216
0.00021418
-0.00296459
-0.000389231
-0.00281744
-0.00106455
-0.00257373
-0.00180066
-0.00224
-0.00254814
-0.00182341
-0.00320025
-0.00131796
-0.00362564
-0.00074134
-0.00380728
-0.000209944
-0.0037894
0.000267401
-0.00353605
0.00112795
-0.00298125
0.00149277
-0.00267167
0.00175066
-0.00226583
0.00200247
-0.00176751
0.00223199
-0.00127954
0.00244613
-0.000849544
0.00264758
-0.000515827
0.00275844
-0.000278629
0.00279574
-0.000102943
0.00277111
4.06306e-05
0.00269083
0.000169234
0.00255724
0.000294658
0.002369
0.000429438
0.00212357
0.000589824
0.00182904
0.000799549
0.00162278
0.00116883
0.0014811
0.00170608
0.00130214
0.00236155
0.00229355
0.0025679
0.00133875
0.000989707
0.0019149
-0.000547665
0.00203328
-0.000575761
0.0104767
-0.00132452
0.00476948
-0.00158385
0.00358603
-0.00174957
0.00279063
-0.00186344
0.00225448
-0.00193489
0.00175709
-0.00197035
0.0012629
-0.0019741
0.000748768
-0.00194292
0.000183004
-0.00185502
-0.000477132
-0.00170052
-0.00121904
-0.0014694
-0.00203178
-0.00116454
-0.00285299
-0.000791863
-0.00357293
-0.000371714
-0.0040458
6.88412e-05
-0.00424784
0.000474131
-0.0041947
0.000848377
-0.0039103
0.00129871
-0.00343158
0.00159651
-0.00296947
0.00179877
-0.00246809
0.00196947
-0.00193821
0.00212074
-0.00143081
0.00225523
-0.000984036
0.00236055
-0.000621149
0.00241965
-0.000337727
0.00243205
-0.000115342
0.00240284
6.98388e-05
0.00233666
0.000235413
0.00223711
0.000394205
0.00210801
0.00055854
0.00195617
0.000741669
0.00179591
0.000959805
0.00170369
0.00126106
0.00175944
0.00165033
0.00197055
0.00215045
0.0022167
0.00232175
0.00173759
0.00146882
0.000808442
0.000381484
0.00293894
-0.000543423
0.0115123
-0.00124345
0.00546951
-0.00119137
0.00353395
-0.00119948
0.00279874
-0.00119172
0.00224672
-0.00115826
0.00172363
-0.00110124
0.00120588
-0.00102638
0.000673902
-0.000928213
8.48405e-05
-0.000779509
-0.000625836
-0.000590334
-0.00140822
-0.000349993
-0.00227212
-6.5601e-05
-0.00313739
0.000239971
-0.00387851
0.000550624
-0.00435645
0.000846243
-0.00454346
0.00110938
-0.00445784
0.0013425
-0.00414343
0.00157356
-0.00366264
0.00173218
-0.00312809
0.00183097
-0.00256688
0.00190008
-0.00200732
0.00195536
-0.00148609
0.00200201
-0.00103069
0.00203481
-0.000653954
0.00204802
-0.000350937
0.00203812
-0.000105445
0.00200571
0.000102251
0.00195364
0.000287483
0.00188539
0.000462456
0.00180577
0.000638159
0.00172285
0.000824589
0.00165121
0.00103145
0.00163396
0.00127831
0.00171667
0.00156762
0.00192356
0.00194355
0.00218062
0.00206469
0.00221114
0.0014383
0.00163274
0.000959884
0.00467398
-0.000483652
0.0125315
-0.00105136
0.00603722
-0.000696851
0.00317944
-0.000635726
0.00273761
-0.000567227
0.00217822
-0.00046257
0.00161897
-0.00033372
0.00107703
-0.000182817
0.000522999
6.06682e-06
-0.000104043
0.000223889
-0.000843659
0.000463552
-0.00164788
0.00072164
-0.00253021
0.000979378
-0.00339513
0.00120899
-0.00410812
0.00140937
-0.00455683
0.00157137
-0.00470547
0.00168958
-0.00457605
0.00176867
-0.00422253
0.00182111
-0.00371508
0.0018302
-0.00313719
0.00180437
-0.00254105
0.00176281
-0.00196576
0.00172056
-0.00144384
0.00168523
-0.000995351
0.00165691
-0.000625637
0.00163176
-0.000325785
0.00160492
-7.86028e-05
0.00157401
0.000133153
0.00153903
0.000322463
0.00150096
0.000500528
0.00146243
0.000676687
0.0014289
0.000858128
0.00141019
0.00105015
0.00142859
0.00125991
0.00151181
0.0014844
0.00171251
0.00174285
0.00200303
0.00177417
0.00217866
0.00126268
0.00175632
0.00138221
0.0067946
0.00297899
0.0101396
0.00202346
0.00699275
0.000869851
0.00433305
0.00037147
0.003236
0.000214705
0.00233499
0.000271114
0.00156257
0.00042483
0.000923315
0.000638366
0.000309462
0.000897261
-0.000362939
0.00116178
-0.00110818
0.00144026
-0.00192636
0.00170775
-0.00279769
0.00193478
-0.00362217
0.00209688
-0.00427022
0.00218792
-0.00464788
0.00221032
-0.00472788
0.00217276
-0.0045385
0.00208885
-0.00413862
0.00197385
-0.00360009
0.00183349
-0.00299683
0.0016801
-0.00238766
0.00153071
-0.00181637
0.00140014
-0.00131327
0.00129682
-0.000892037
0.00122228
-0.00055109
0.00117192
-0.000275425
0.00113857
-4.5252e-05
0.00111682
0.0001549
0.00110294
0.000336342
0.00109436
0.000509106
0.00109052
0.000680527
0.00109305
0.000855601
0.00110577
0.00103742
0.00113741
0.00122826
0.00119996
0.00142186
0.00133419
0.00160861
0.00156319
0.00154517
0.00165613
0.00116977
0.00034076
0.00269757
0.00751741
0.00403265
0.00624722
0.00366896
0.00735644
0.00254311
0.00545891
0.00188962
0.00388949
0.00153306
0.00269155
0.00138823
0.00170739
0.00142193
0.000889615
0.00159605
0.000135339
0.00184772
-0.000614607
0.00212454
-0.001385
0.00240428
-0.0022061
0.00264976
-0.00304317
0.00281926
-0.00379166
0.00288557
-0.00433653
0.00284522
-0.00460753
0.00271185
-0.00459451
0.00250766
-0.00433431
0.00225689
-0.00388786
0.00198232
-0.00332551
0.00170108
-0.00271559
0.00143048
-0.00211707
0.00118847
-0.00157435
0.000990024
-0.00111483
0.000841845
-0.000743859
0.00074339
-0.000452634
0.000686235
-0.00021827
0.000659644
-1.86614e-05
0.000654677
0.000159867
0.000664123
0.000326896
0.000682896
0.000490333
0.000708169
0.000655255
0.000738172
0.000825598
0.000770269
0.00100533
0.00079839
0.00120014
0.00080039
0.00141986
0.000702817
0.00170618
0.000129595
0.00211841
-0.00184419
0.00314393
-0.00333586
0.00418937
0.00428435
0.00240963
0.00400213
0.0033048
0.00646127
0.00324874
0.00551497
0.00303799
0.00410024
0.00284709
0.00288246
0.00272389
0.00183059
0.00270992
0.000903588
0.00279864
4.66221e-05
0.00296018
-0.000776153
0.0031705
-0.00159532
0.00338804
-0.00242364
0.00355286
-0.00320799
0.00361008
-0.00384888
0.00353287
-0.00425931
0.00332651
-0.00440117
0.00301706
-0.00428506
0.00263884
-0.00395609
0.0022252
-0.00347422
0.00180568
-0.002906
0.00140372
-0.00231364
0.00104089
-0.00175424
0.000736596
-0.00127006
0.000505232
-0.000883465
0.000346216
-0.000584843
0.000251874
-0.000358292
0.000206435
-0.000172831
0.000196048
-8.27484e-06
0.000209979
0.000145936
0.000240159
0.000296715
0.000281518
0.000448974
0.000330882
0.000605892
0.00038522
0.000771261
0.000439581
0.000950965
0.000484364
0.00115536
0.000491726
0.0014125
0.000396564
0.00180134
4.42922e-05
0.00247066
-0.000662636
0.00385129
-0.00104957
0.00457665
0.00334822
0.00145583
0.00274055
0.00274697
0.00517014
0.00343142
0.00483052
0.0037181
0.00381356
0.00381717
0.0027834
0.00384564
0.00180213
0.00388179
0.000867438
0.00395062
-2.22126e-05
0.00406006
-0.000885593
0.00419964
-0.0017349
0.00431829
-0.00254228
0.00434539
-0.00323507
0.00422923
-0.00373271
0.00395747
-0.00398755
0.00355256
-0.00399625
0.0030543
-0.0037868
0.00250657
-0.00340836
0.00194798
-0.00291564
0.0014125
-0.00237052
0.000926191
-0.00182733
0.000515827
-0.00134388
0.000199343
-0.000953576
-1.64018e-05
-0.000667721
-0.000146121
-0.000455125
-0.000213221
-0.000291192
-0.000238259
-0.000147794
-0.000233352
-1.31827e-05
-0.000206356
0.00011894
-0.000162673
0.000253032
-0.000105926
0.000392227
-3.87556e-05
0.000538722
3.64333e-05
0.000696072
0.00011662
0.00087078
0.000198233
0.00107375
0.000267317
0.00134341
0.000267243
0.00180136
0.000219312
0.00251841
0.000501451
0.00356915
0.000656595
0.00442162
0.00412429
0.0021665
0.000800016
0.00293861
0.00439803
0.0035912
0.00417794
0.00416319
0.00324157
0.00449229
0.0024543
0.00466746
0.00162695
0.00478451
0.000750394
0.00488863
-0.000126342
0.00499384
-0.0009908
0.00507083
-0.00181189
0.00505445
-0.00252588
0.00488454
-0.00306516
0.00453849
-0.00338664
0.0040352
-0.00348425
0.00341978
-0.00338082
0.00274322
-0.00311023
0.00205407
-0.00271921
0.00139011
-0.00225169
0.000789814
-0.00177022
0.000277827
-0.00131534
-0.00010922
-0.000956829
-0.00036632
-0.000696476
-0.000519177
-0.000514865
-0.000602688
-0.000371616
-0.000643785
-0.000250096
-0.000654081
-0.000137499
-0.000639923
-2.73416e-05
-0.000605466
8.44823e-05
-0.000553788
0.000201355
-0.000487899
0.000326338
-0.00041102
0.000461844
-0.000326297
0.00061135
-0.00023617
0.000780655
-0.000144421
0.000982
-7.44835e-05
0.00127344
-7.72803e-05
0.00180399
-2.40808e-05
0.00246476
0.000621636
0.002923
0.00107699
0.00396591
0.0053291
-0.00157724
0.00262236
0.00111688
0.00170391
0.00334916
0.00194566
0.00435329
0.00223744
0.004859
0.00194859
0.00517474
0.00131121
0.00540273
0.000522403
0.00557916
-0.000302778
0.0056765
-0.00108814
0.00563341
-0.00176879
0.00539918
-0.00229165
0.00496201
-0.00262798
0.00434981
-0.00277443
0.00361588
-0.0027503
0.00282087
-0.0025858
0.00201527
-0.00230463
0.00124732
-0.00195125
0.000547477
-0.00155184
-3.85745e-05
-0.00118417
-0.000470171
-0.000883743
-0.000744888
-0.000682111
-0.00090797
-0.000533395
-0.00100507
-0.000417773
-0.00105895
-0.000317736
-0.00108307
-0.00022598
-0.00108297
-0.000137604
-0.00106148
-4.88324e-05
-0.00102076
4.37613e-05
-0.000963008
0.000143603
-0.000891559
0.00025489
-0.000811695
0.000381981
-0.000731136
0.000530791
-0.000662415
0.000711941
-0.000629855
0.000949464
-0.000671885
0.00131551
-0.000796344
0.00192835
-0.000940142
0.00260814
-0.000934169
0.00291631
-0.000750762
0.00378175
0.0047225
0.00288407
0.00457279
0.0048722
0.00164625
0.00536009
0.00174955
0.00559838
0.00171029
0.00583024
0.00107934
0.00601606
0.000336574
0.00607986
-0.000366599
0.00595129
-0.000959582
0.00559718
-0.00141469
0.00503013
-0.00172458
0.00429723
-0.00189506
0.0034573
-0.00193448
0.00257016
-0.00186314
0.00169177
-0.00170739
0.000856165
-0.00146902
0.000105276
-0.00120035
-0.000504601
-0.000941959
-0.000935679
-0.000753082
-0.00120625
-0.000613163
-0.00137555
-0.00051281
-0.00147998
-0.000428977
-0.00154509
-0.000352687
-0.00158211
-0.000280725
-0.00159584
-0.000212271
-0.00158782
-0.000145631
-0.00155886
-7.77895e-05
-0.00151107
-4.02662e-06
-0.00144665
7.91912e-05
-0.00136835
0.000176592
-0.00128301
0.000296638
-0.0012022
0.000449983
-0.00114511
0.00065486
-0.00114339
0.000947817
-0.00123027
0.00140258
-0.00142016
0.00211854
-0.00190573
0.00309391
-0.00300349
0.0040141
-0.00324273
0.00402084
0.00164097
0.00793762
0.00535752
0.00582013
0.00386704
0.00557182
0.00195855
0.00564148
0.00100962
0.00560356
0.000374401
0.00535805
-0.000121144
0.00489272
-0.000494275
0.00424754
-0.000769516
0.00347639
-0.000953415
0.00263324
-0.00105189
0.00176094
-0.00106215
0.000899123
-0.00100131
8.46823e-05
-0.000892929
-0.000623408
-0.000760911
-0.00117076
-0.000652981
-0.00155059
-0.000562107
-0.00180427
-0.000499385
-0.00196831
-0.000449126
-0.00208013
-0.00040101
-0.00215913
-0.000350013
-0.00221416
-0.000297697
-0.0022483
-0.000246629
-0.00226238
-0.000198214
-0.00225612
-0.000151896
-0.00222871
-0.000105184
-0.00217892
-5.37907e-05
-0.00210759
7.87428e-06
-0.0020158
8.48169e-05
-0.00190529
0.000186117
-0.00178343
0.000328091
-0.00166263
0.00053402
-0.00155657
0.000841773
-0.00146561
0.0013118
-0.00136056
0.0020139
-0.00123777
0.00297165
-0.00131982
0.00409663
-0.00124195
0.00394345
0.000573652
0.00411785
0.00148624
0.00451742
0.00346744
0.00374202
0.00273388
0.003236
0.00151554
0.00288897
0.000721361
0.00252175
0.000246043
0.00207304
-4.55805e-05
0.00152935
-0.000225819
0.00091068
-0.000334728
0.00023665
-0.000377841
-0.00045082
-0.000374663
-0.00109036
-0.00036174
-0.00163084
-0.000352414
-0.00204316
-0.00034855
-0.00234004
-0.000356065
-0.00254215
-0.000359968
-0.00268734
-0.000354185
-0.00280139
-0.000335103
-0.00289693
-0.000305531
-0.00297672
-0.000270304
-0.0030403
-0.000234206
-0.0030867
-0.000200298
-0.00311513
-0.000169824
-0.00312429
-0.000142728
-0.00311131
-0.000118114
-0.00307085
-9.41687e-05
-0.00299581
-6.70854e-05
-0.00288172
-2.92211e-05
-0.0027264
3.07901e-05
-0.00252939
0.000131007
-0.00229382
0.00029832
-0.00201854
0.000566353
-0.00167409
0.000967288
-0.0011884
0.00152834
-0.000482091
0.00226573
0.00042902
0.00318591
0.00112979
0.00324314
0.00187977
-0.002596
-0.00675317
-0.00740205
-0.00745489
-0.00374715
-0.00216863
-0.00166877
0.00138902
-0.000755384
0.00182043
-0.000556796
0.00131689
-0.000636886
0.000801405
-0.000824484
0.00043361
-0.00106776
0.000197674
-0.00135852
6.49225e-05
-0.00169997
6.72234e-06
-0.00206847
-9.33188e-06
-0.00243058
-1.25245e-05
-0.00276012
-3.21529e-05
-0.00302339
-8.9081e-05
-0.00320599
-0.000165887
-0.00333198
-0.00023003
-0.00343257
-0.000259361
-0.00353009
-0.000256698
-0.00363105
-0.000234226
-0.00373322
-0.000203482
-0.00383113
-0.000172531
-0.00391913
-0.000146331
-0.00399249
-0.000127028
-0.00404775
-0.000114585
-0.00408238
-0.000108065
-0.00409323
-0.000107158
-0.00407458
-0.000112663
-0.00401622
-0.00012527
-0.00390312
-0.000142159
-0.00372055
-0.000151669
-0.0034588
-0.000130733
-0.00311682
-4.37927e-05
-0.00269629
0.000145583
-0.00217028
0.000440986
-0.00144292
0.000800736
-0.000404299
0.00122703
0.000865208
0.00191652
0.00134988
0.00275868
0.00341124
-0.00734197
0.00104221
-0.00811198
-0.0066849
-0.00716816
-0.00311247
-0.00564986
-0.000129324
-0.00455701
0.000727508
-0.00396444
0.00072425
-0.00370395
0.000540854
-0.00363603
0.000365634
-0.00367733
0.000238946
-0.00377196
0.000159542
-0.00387743
0.000112219
-0.00396468
7.79506e-05
-0.00402037
4.3231e-05
-0.00405339
9.43831e-07
-0.00408568
-5.66988e-05
-0.00413329
-0.000118213
-0.00420263
-0.000160675
-0.00428894
-0.000173081
-0.00438321
-0.000162523
-0.00447684
-0.000140745
-0.00456374
-0.000116746
-0.00464035
-9.60858e-05
-0.00470485
-8.1972e-05
-0.00475629
-7.56682e-05
-0.00479404
-7.68292e-05
-0.00481742
-8.46125e-05
-0.00482502
-9.93905e-05
-0.00481381
-0.000123643
-0.00477838
-0.000160419
-0.00471081
-0.000209407
-0.00460036
-0.000261824
-0.00443225
-0.000298619
-0.00418339
-0.000292581
-0.0038226
-0.000215354
-0.00333329
-4.87033e-05
-0.00268267
0.000149627
-0.00165908
0.00020297
0.000107625
0.000149524
0.00115439
0.00171186
0.00475203
0.00158379
-0.00503666
-0.00808623
-0.00815637
-0.0073747
-0.00660397
-0.0060232
-0.00562229
-0.00535102
-0.00516078
-0.00501852
-0.00491042
-0.00483645
-0.00480407
-0.00482895
-0.00491532
-0.00504434
-0.005186
-0.00531727
-0.00542683
-0.00551241
-0.0055773
-0.00562807
-0.00567263
-0.00571857
-0.0057727
-0.00584222
-0.00593684
-0.00606935
-0.00625218
-0.00648897
-0.00676418
-0.00703493
-0.00722981
-0.00725914
-0.00709102
-0.00687026
-0.00670358
-0.00497517
)
;

boundaryField
{
    floor
    {
        type            calculated;
        value           nonuniform List<scalar> 
36
(
0
0
0
0
0
0
0
0
0
0
0
0
0
0
0
0
0
0
0
-6.43924e-06
-1.68843e-05
-2.603e-05
-3.43028e-05
-3.49029e-05
-2.84834e-05
-2.8515e-05
-2.92051e-06
-5.44248e-06
-5.68885e-06
-5.90897e-06
-4.8544e-06
-8.94023e-06
-1.02098e-05
-1.28336e-05
-1.44557e-05
-1.5445e-05
)
;
    }
    ceiling
    {
        type            calculated;
        value           nonuniform List<scalar> 
43
(
-5.77875e-05
-6.44847e-05
-6.29717e-05
-5.92692e-05
-5.4264e-05
-4.65788e-05
-4.00107e-05
-3.53431e-05
-3.2362e-05
-3.06896e-05
-3.00042e-05
-3.00741e-05
-3.06451e-05
-3.13396e-05
-3.17405e-05
-3.18033e-05
-3.16682e-05
-3.14944e-05
-3.13718e-05
-3.13207e-05
-3.13187e-05
-3.13222e-05
-3.12802e-05
-3.11401e-05
-3.08529e-05
-3.03781e-05
-2.9687e-05
-2.8764e-05
-2.76091e-05
-2.62466e-05
-2.47417e-05
-2.32091e-05
-2.17899e-05
-2.05919e-05
-1.96399e-05
-1.88704e-05
-1.81691e-05
-1.74478e-05
-1.6722e-05
-1.68173e-05
1.93382e-05
1.51849e-05
-0.00024657
)
;
    }
    sWall
    {
        type            calculated;
        value           nonuniform List<scalar> 9(-0.000140239 -0.000164529 -0.00019426 -0.000225965 -0.000245109 -0.000281048 -0.000423463 -0.000453408 -0.000483785);
    }
    nWall
    {
        type            calculated;
        value           nonuniform List<scalar> 
14
(
-8.98664e-05
-9.72309e-05
-0.000102317
-0.00010289
-0.000113448
-0.00011953
-0.000128279
-0.000144591
-0.000161387
-0.000174037
-0.000175994
-0.000181441
-0.000186409
-0.000206365
)
;
    }
    sideWalls
    {
        type            empty;
        value           nonuniform 0();
    }
    glass1
    {
        type            calculated;
        value           nonuniform List<scalar> 9(-6.40343e-05 -0.000170321 -0.000257924 -0.000331208 -0.000393192 -0.000446397 -0.000492207 -0.000535486 -0.00058717);
    }
    glass2
    {
        type            calculated;
        value           nonuniform List<scalar> 2(-0.000364329 -0.000382165);
    }
    sun
    {
        type            calculated;
        value           uniform 0;
    }
    Table_master
    {
        type            calculated;
        value           nonuniform List<scalar> 9(-1.53992e-07 -1.54109e-07 -1.54141e-07 -1.54161e-07 -1.54174e-07 -1.54179e-07 -1.54177e-07 -1.54163e-07 -1.5411e-07);
    }
    Table_slave
    {
        type            calculated;
        value           nonuniform List<scalar> 9(1.53662e-07 1.53718e-07 1.53717e-07 1.53734e-07 1.53754e-07 1.53798e-07 1.53865e-07 1.53958e-07 1.54086e-07);
    }
    inlet
    {
        type            calculated;
        value           uniform -0.0116489;
    }
    outlet
    {
        type            calculated;
        value           nonuniform List<scalar> 2(0.00977267 0.012261);
    }
}


// ************************************************************************* //
