/*--------------------------------*- C++ -*----------------------------------*\
  =========                 |
  \\      /  F ield         | OpenFOAM: The Open Source CFD Toolbox
   \\    /   O peration     | Website:  https://openfoam.org
    \\  /    A nd           | Version:  6
     \\/     M anipulation  |
\*---------------------------------------------------------------------------*/
FoamFile
{
    version     2.0;
    format      ascii;
    class       volScalarField;
    location    "4150";
    object      alphat;
}
// * * * * * * * * * * * * * * * * * * * * * * * * * * * * * * * * * * * * * //

dimensions      [1 -1 -1 0 0 0 0];

internalField   nonuniform List<scalar> 
458
(
0.00124408
0.00135521
0.00138589
0.00145221
0.00151329
0.00157113
0.00162903
0.00168777
0.00173582
0.00176603
0.00176948
0.0017374
0.00165872
0.0014921
0.00113177
0.000559113
0.0006555
0.000743192
0.0007749
0.000762754
0.000713774
0.000659581
0.000611093
0.000569084
0.000532604
0.00050075
0.000472862
0.000448143
0.00042563
0.000404276
0.000382833
0.000370089
0.000340107
0.00167647
0.00377502
0.00348194
0.00398961
0.00449577
0.00501644
0.0054833
0.00584461
0.0062159
0.00656358
0.0068426
0.00701232
0.00702824
0.0067835
0.00551367
0.00149401
0.00123944
0.00101118
0.000554583
0.00131634
0.00191864
0.00238497
0.00253227
0.00184541
0.00155792
0.00136221
0.00121784
0.00110721
0.0010195
0.000943872
0.000872738
0.000801734
0.000738308
0.000685003
0.000837928
0.00044713
0.00203693
0.0050724
0.00418649
0.00510447
0.0054903
0.00576102
0.00596922
0.00616155
0.00642923
0.00675512
0.00711131
0.00746016
0.00773527
0.00783177
0.00737935
0.0060143
0.00455808
0.00119422
0.000854348
0.00147432
0.00214555
0.00281331
0.00300392
0.000959295
0.000839852
0.000740455
0.000659954
0.000594993
0.000542348
0.000499554
0.000464948
0.00043803
0.000485432
0.00056218
0.000983083
0.000528393
0.00238389
0.00647859
0.00407213
0.00528806
0.00549895
0.00547778
0.00545822
0.00555055
0.00576835
0.006091
0.00650087
0.00695771
0.00735734
0.00760849
0.00755135
0.00716089
0.00614559
0.00337396
0.00137576
0.00175204
0.00240865
0.00321268
0.00390904
0.00394316
0.00108036
0.000990255
0.000928879
0.000883579
0.000845274
0.000807264
0.000771132
0.000732958
0.000688342
0.000648487
0.000639018
0.00117166
0.000608544
0.00273782
0.00836908
0.00427094
0.00501935
0.00532092
0.00514078
0.004994
0.00507768
0.00530771
0.00564404
0.0060864
0.00658747
0.00697914
0.00717364
0.00716843
0.00703166
0.00662624
0.00547925
0.00496579
0.00500195
0.00529333
0.00564038
0.00585306
0.00575675
0.00491152
0.00447679
0.00423674
0.00406498
0.00389118
0.00366729
0.00328719
0.00279773
0.00224096
0.00170479
0.00127871
0.00119125
0.00103414
0.000813338
0.000860759
0.000935587
0.00311664
0.0104979
0.00584876
0.0046468
0.00506431
0.0050536
0.00486649
0.00493569
0.00517105
0.00550767
0.00595649
0.00643729
0.00679992
0.00691472
0.00680419
0.00664715
0.00657634
0.00648201
0.00667705
0.00701519
0.00725219
0.00729369
0.00713319
0.00679858
0.00633168
0.00595224
0.00565634
0.00539592
0.0051407
0.00487004
0.00451972
0.00403967
0.00343245
0.00274556
0.00210979
0.0015298
0.00125747
0.00109686
0.00138114
0.000970513
0.00348956
0.0121016
0.00872413
0.0057092
0.00496847
0.00503975
0.00510374
0.00514045
0.00527417
0.00557154
0.00601368
0.00649032
0.00682276
0.00685874
0.00664914
0.00649808
0.00674765
0.00730054
0.00786366
0.00818131
0.00818193
0.00790917
0.00744673
0.00688459
0.00632526
0.00587502
0.00553412
0.00525776
0.00501609
0.0047991
0.00460166
0.00434348
0.00391889
0.00335237
0.00276352
0.00219749
0.00182802
0.00167466
0.00159619
0.00115309
0.00357905
0.0112159
0.00952719
0.0079979
0.00682812
0.00630996
0.00582351
0.00549395
0.00549012
0.00577439
0.00623187
0.00670269
0.00698196
0.0069164
0.00665979
0.00672362
0.00743682
0.00802184
0.00832607
0.00831162
0.00798081
0.00740908
0.0067047
0.00599541
0.00540642
0.00499371
0.0047154
0.00451549
0.00436772
0.00426808
0.00422389
0.00422569
0.00411257
0.00377573
0.0034473
0.00326429
0.00334407
0.0035302
0.00419298
0.00178523
0.00350477
0.00423042
0.0046753
0.00492486
0.00496213
0.00488889
0.00489242
0.00510065
0.00552053
0.00605428
0.00659971
0.00702863
0.00716542
0.00691731
0.00684658
0.00720807
0.00762627
0.00776955
0.00766562
0.00730211
0.00669393
0.00594207
0.00519269
0.00457761
0.0041523
0.00388144
0.00369973
0.00356168
0.00344396
0.00333335
0.00321985
0.00309519
0.00298221
0.00288465
0.00281985
0.00278314
0.00271362
0.00257062
0.00239687
0.00166668
0.00157963
0.00276078
0.00377682
0.00457243
0.00530127
0.00601034
0.00657187
0.00694727
0.0071908
0.00722446
0.00698552
0.00669671
0.00669721
0.00681711
0.00672527
0.00645433
0.0060272
0.00545218
0.00479035
0.00414428
0.00363013
0.00328396
0.00307176
0.00294169
0.00285518
0.00279217
0.00274382
0.0027081
0.00268803
0.00269431
0.00271003
0.00272406
0.00272478
0.00268152
0.00254853
0.0023143
0.00202416
0.00134112
0.00238088
0.0046537
0.00595096
0.00679144
0.00744507
0.00749522
0.00710364
0.00670999
0.00637241
0.00573416
0.0052802
0.00517403
0.00510217
0.00490226
0.00460116
0.00422803
0.00379033
0.00333021
0.00291554
0.002593
0.00237076
0.00224265
0.00218269
0.00216984
0.00219126
0.0022385
0.0023045
0.00238085
0.00247003
0.00257275
0.00268256
0.00279044
0.0028782
0.00292206
0.00288121
0.0028455
0.00261979
0.00135856
0.00249156
0.00255346
0.00260944
0.00289324
0.00272908
0.00241445
0.00203371
0.00172835
0.00154177
0.00136496
0.00120949
0.00108791
0.000984993
0.000906986
0.00085274
0.000813131
0.000781276
0.000753865
0.000731235
0.000715968
0.000710274
0.000714555
0.000727241
0.000745889
0.000769453
0.000797377
0.000829475
0.000866007
0.000907544
0.000955371
0.00100976
0.00107033
0.0011374
0.00121127
0.00129198
0.0013887
0.001431
0.00140166
0.00130372
0.00120559
)
;

boundaryField
{
    floor
    {
        type            compressible::alphatWallFunction;
        Prt             0.85;
        value           nonuniform List<scalar> 
36
(
0.000160683
7.82022e-05
9.26106e-05
0.000105496
0.000110109
0.000108345
0.000101196
9.32156e-05
8.60079e-05
7.97065e-05
7.41876e-05
6.93301e-05
6.50456e-05
6.12213e-05
5.77149e-05
5.4367e-05
5.09824e-05
4.89594e-05
4.41639e-05
4.41633e-05
6.10646e-05
7.35487e-05
8.56288e-05
0.000115681
0.000122504
0.000133176
0.000160681
0.000210146
0.000175549
0.000143834
7.82012e-05
0.000143833
7.75171e-05
0.000169323
0.000121569
0.000194167
)
;
    }
    ceiling
    {
        type            compressible::alphatWallFunction;
        Prt             0.85;
        value           nonuniform List<scalar> 
43
(
0.000340268
0.000348132
0.000355228
0.000391035
0.000370452
0.000330581
0.000281565
0.00024153
0.000216689
0.000192834
0.000171568
0.000154719
0.000140285
0.000129227
0.000121472
0.000115772
0.000111164
0.000107181
0.00010388
0.000101645
0.000100811
0.000101438
0.000103296
0.000106019
0.000109449
0.000113497
0.000118129
0.000123375
0.000129308
0.000136101
0.000143777
0.000152269
0.000161608
0.000171821
0.000182899
0.000196072
0.000201801
0.000197831
0.000184505
0.000171043
0.000467119
0.000555338
0.000326058
)
;
    }
    sWall
    {
        type            compressible::alphatWallFunction;
        Prt             0.85;
        value           uniform 0.000339026;
    }
    nWall
    {
        type            compressible::alphatWallFunction;
        Prt             0.85;
        value           nonuniform List<scalar> 6(0.000132957 0.000137898 0.000163425 0.000189264 0.000191635 0.000170702);
    }
    sideWalls
    {
        type            empty;
    }
    glass1
    {
        type            compressible::alphatWallFunction;
        Prt             0.85;
        value           nonuniform List<scalar> 9(0.000171655 0.000229168 0.000275988 0.000320302 0.000364869 0.000411952 0.000457765 0.00046882 0.000459996);
    }
    glass2
    {
        type            compressible::alphatWallFunction;
        Prt             0.85;
        value           nonuniform List<scalar> 2(0.000247083 0.000231539);
    }
    sun
    {
        type            compressible::alphatWallFunction;
        Prt             0.85;
        value           nonuniform List<scalar> 
14
(
0.000176205
0.000191374
0.000195541
0.000204514
0.000212738
0.000220491
0.000228221
0.000236032
0.000242398
0.000246391
0.000246846
0.000242606
0.000232171
0.000209888
)
;
    }
    Table_master
    {
        type            compressible::alphatWallFunction;
        Prt             0.85;
        value           nonuniform List<scalar> 9(0.00013667 0.000119635 0.000105239 9.34095e-05 8.37348e-05 7.57988e-05 6.92769e-05 6.39515e-05 5.97744e-05);
    }
    Table_slave
    {
        type            compressible::alphatWallFunction;
        Prt             0.85;
        value           nonuniform List<scalar> 9(0.000153687 0.000141047 0.00013236 0.000125905 0.000120417 0.000114942 0.000109708 0.000104147 9.76024e-05);
    }
    inlet
    {
        type            fixedValue;
        value           uniform 1.94e-05;
    }
    outlet
    {
        type            zeroGradient;
    }
}


// ************************************************************************* //
