/*--------------------------------*- C++ -*----------------------------------*\
  =========                 |
  \\      /  F ield         | OpenFOAM: The Open Source CFD Toolbox
   \\    /   O peration     | Website:  https://openfoam.org
    \\  /    A nd           | Version:  6
     \\/     M anipulation  |
\*---------------------------------------------------------------------------*/
FoamFile
{
    version     2.0;
    format      ascii;
    class       volScalarField;
    location    "3720";
    object      alphat;
}
// * * * * * * * * * * * * * * * * * * * * * * * * * * * * * * * * * * * * * //

dimensions      [1 -1 -1 0 0 0 0];

internalField   nonuniform List<scalar> 
458
(
0.00124408
0.00135521
0.00138589
0.00145221
0.00151329
0.00157113
0.00162902
0.00168777
0.00173581
0.00176602
0.00176947
0.00173739
0.0016587
0.00149208
0.00113177
0.000559111
0.000655496
0.000743187
0.000774894
0.000762749
0.00071377
0.000659577
0.00061109
0.000569082
0.000532601
0.000500747
0.000472862
0.000448143
0.00042563
0.000404276
0.000382833
0.000370089
0.000340107
0.00167646
0.00377494
0.00348189
0.00398955
0.0044957
0.00501639
0.00548326
0.00584458
0.00621587
0.00656355
0.00684258
0.00701229
0.00702817
0.00678346
0.0055135
0.00149401
0.00123944
0.00101118
0.000554583
0.00131633
0.00191864
0.00238495
0.00253226
0.00184541
0.00155791
0.00136221
0.00121784
0.00110722
0.00101949
0.000943853
0.000872716
0.00080171
0.000738283
0.000684997
0.000837925
0.000447127
0.00203693
0.00507245
0.00418647
0.00510445
0.00549025
0.00576095
0.00596921
0.0061615
0.00642922
0.00675512
0.00711128
0.00746015
0.00773528
0.00783174
0.00737933
0.00601422
0.00455802
0.00119424
0.000854348
0.00147432
0.00214552
0.00281321
0.0030038
0.000959295
0.000839852
0.000740457
0.000659956
0.000594995
0.00054235
0.000499557
0.000464951
0.000438033
0.000485434
0.000562179
0.000983087
0.000528393
0.00238387
0.00647856
0.00407213
0.00528806
0.0054989
0.00547774
0.00545818
0.00555049
0.00576835
0.00609098
0.0065009
0.00695772
0.00735737
0.00760848
0.00755136
0.00716084
0.0061456
0.00337393
0.00137577
0.00175206
0.00240866
0.00321265
0.00390904
0.00394318
0.00108037
0.000990269
0.000928894
0.000883595
0.00084529
0.000807273
0.000771139
0.000732964
0.000688346
0.000648482
0.000639018
0.00117166
0.000608547
0.00273782
0.00836908
0.00427094
0.00501931
0.00532086
0.00514069
0.00499394
0.00507761
0.00530771
0.00564389
0.00608629
0.00658735
0.00697909
0.0071736
0.00716842
0.00703152
0.00662616
0.00547917
0.00496579
0.00500187
0.00529323
0.00564025
0.0058529
0.00575656
0.00491134
0.00447662
0.00423665
0.00406491
0.00389112
0.00366727
0.00328719
0.00279773
0.00224095
0.00170477
0.0012787
0.00119125
0.00103414
0.000813337
0.000860759
0.000935587
0.00311664
0.0104979
0.00584874
0.00464677
0.00506427
0.00505356
0.00486642
0.00493562
0.00517096
0.0055076
0.00595642
0.0064372
0.0067998
0.0069147
0.00680418
0.00664706
0.00657628
0.00648193
0.00667696
0.00701508
0.00725205
0.00729361
0.00713318
0.00679856
0.00633164
0.00595221
0.00565639
0.005396
0.00514073
0.00486996
0.00451965
0.00403962
0.0034324
0.00274554
0.00210979
0.0015298
0.00125747
0.00109686
0.00138114
0.000970513
0.00348953
0.0121018
0.00872403
0.00570941
0.00496853
0.00503979
0.0051037
0.0051405
0.00527419
0.00557155
0.00601368
0.0064903
0.00682272
0.00685874
0.00664909
0.00649808
0.00674766
0.00730056
0.00786351
0.00818115
0.00818176
0.00790897
0.0074467
0.00688456
0.00632522
0.005875
0.00553411
0.00525775
0.0050161
0.00479911
0.00460167
0.00434356
0.00391897
0.00335235
0.00276346
0.00219745
0.00182802
0.00167466
0.00159619
0.00115309
0.00357902
0.0112159
0.0095271
0.0079979
0.00682807
0.0063099
0.00582344
0.00549389
0.00549005
0.00577434
0.00623181
0.00670257
0.00698186
0.00691636
0.00665974
0.00672356
0.00743666
0.00802166
0.00832589
0.00831143
0.00798062
0.00740887
0.00670464
0.00599541
0.00540642
0.00499371
0.0047154
0.00451545
0.00436769
0.00426804
0.00422385
0.00422569
0.00411257
0.00377578
0.0034473
0.00326425
0.00334405
0.00353015
0.00419298
0.00178523
0.00350477
0.00423041
0.0046753
0.00492486
0.00496213
0.00488889
0.00489241
0.0051006
0.00552046
0.00605419
0.0065996
0.00702849
0.00716523
0.00691727
0.00684659
0.00720808
0.00762625
0.00776943
0.0076655
0.00730209
0.00669376
0.00594207
0.00519269
0.00457761
0.0041523
0.00388144
0.00369973
0.00356168
0.00344396
0.00333336
0.00321986
0.00309521
0.00298224
0.00288463
0.00281983
0.00278316
0.00271362
0.00257062
0.0023969
0.00166668
0.00157966
0.00276076
0.00377679
0.0045724
0.00530119
0.00601023
0.00657173
0.0069471
0.00719057
0.00722431
0.00698558
0.00669676
0.00669731
0.00681711
0.00672527
0.00645433
0.0060272
0.00545219
0.00479041
0.00414435
0.00363019
0.00328402
0.00307181
0.00294169
0.00285518
0.00279217
0.00274382
0.0027081
0.00268803
0.00269431
0.00271003
0.00272406
0.00272479
0.00268153
0.00254855
0.00231431
0.00202416
0.00134113
0.00238088
0.00465365
0.00595101
0.00679146
0.00744511
0.00749529
0.00710346
0.00670987
0.00637239
0.00573417
0.00528024
0.00517415
0.00510232
0.00490242
0.00460133
0.0042282
0.00379054
0.00333041
0.00291571
0.00259312
0.00237084
0.00224272
0.00218274
0.00216987
0.00219126
0.0022385
0.0023045
0.00238085
0.00247006
0.00257279
0.0026826
0.00279047
0.00287822
0.00292208
0.00288122
0.00284551
0.00261981
0.00135857
0.00249156
0.00255346
0.00260944
0.00289324
0.00272908
0.00241443
0.00203369
0.00172835
0.00154177
0.00136495
0.00120949
0.0010879
0.000984979
0.000906972
0.000852736
0.000813123
0.000781267
0.000753856
0.000731226
0.000715958
0.000710265
0.000714548
0.000727233
0.000745882
0.000769446
0.00079737
0.000829471
0.000865999
0.000907533
0.000955356
0.00100975
0.00107032
0.00113738
0.00121126
0.00129197
0.00138869
0.00143099
0.00140165
0.00130371
0.00120559
)
;

boundaryField
{
    floor
    {
        type            compressible::alphatWallFunction;
        Prt             0.85;
        value           nonuniform List<scalar> 
36
(
0.000160683
7.82018e-05
9.261e-05
0.000105495
0.000110108
0.000108344
0.000101195
9.3215e-05
8.60074e-05
7.97061e-05
7.41872e-05
6.93296e-05
6.50456e-05
6.12213e-05
5.77149e-05
5.4367e-05
5.09824e-05
4.89594e-05
4.41639e-05
4.41633e-05
6.10641e-05
7.35487e-05
8.56292e-05
0.00011568
0.000122504
0.000133176
0.000160681
0.000210146
0.000175549
0.000143834
7.82009e-05
0.000143833
7.75171e-05
0.000169325
0.000121569
0.000194168
)
;
    }
    ceiling
    {
        type            compressible::alphatWallFunction;
        Prt             0.85;
        value           nonuniform List<scalar> 
43
(
0.000340269
0.000348133
0.000355228
0.000391035
0.000370452
0.000330578
0.000281562
0.00024153
0.000216689
0.000192834
0.000171568
0.000154717
0.000140283
0.000129225
0.000121471
0.000115771
0.000111163
0.00010718
0.000103878
0.000101644
0.000100809
0.000101437
0.000103295
0.000106018
0.000109448
0.000113496
0.000118128
0.000123374
0.000129307
0.000136099
0.000143775
0.000152267
0.000161606
0.000171819
0.000182898
0.00019607
0.000201799
0.000197829
0.000184505
0.000171043
0.000467119
0.000555337
0.000326058
)
;
    }
    sWall
    {
        type            compressible::alphatWallFunction;
        Prt             0.85;
        value           uniform 0.000339026;
    }
    nWall
    {
        type            compressible::alphatWallFunction;
        Prt             0.85;
        value           nonuniform List<scalar> 6(0.000132957 0.000137898 0.000163425 0.000189266 0.000191637 0.000170702);
    }
    sideWalls
    {
        type            empty;
    }
    glass1
    {
        type            compressible::alphatWallFunction;
        Prt             0.85;
        value           nonuniform List<scalar> 9(0.000171655 0.000229167 0.000275988 0.000320299 0.000364869 0.000411952 0.00045776 0.000468816 0.000459996);
    }
    glass2
    {
        type            compressible::alphatWallFunction;
        Prt             0.85;
        value           nonuniform List<scalar> 2(0.000247083 0.000231539);
    }
    sun
    {
        type            compressible::alphatWallFunction;
        Prt             0.85;
        value           nonuniform List<scalar> 
14
(
0.000176205
0.000191374
0.000195541
0.000204514
0.000212738
0.000220491
0.00022822
0.000236031
0.000242397
0.00024639
0.000246845
0.000242605
0.000232169
0.000209885
)
;
    }
    Table_master
    {
        type            compressible::alphatWallFunction;
        Prt             0.85;
        value           nonuniform List<scalar> 9(0.00013667 0.000119635 0.00010524 9.34098e-05 8.37352e-05 7.57991e-05 6.92773e-05 6.3952e-05 5.97748e-05);
    }
    Table_slave
    {
        type            compressible::alphatWallFunction;
        Prt             0.85;
        value           nonuniform List<scalar> 9(0.000153689 0.000141049 0.000132362 0.000125908 0.000120419 0.000114943 0.000109709 0.000104148 9.7603e-05);
    }
    inlet
    {
        type            fixedValue;
        value           uniform 1.94e-05;
    }
    outlet
    {
        type            zeroGradient;
    }
}


// ************************************************************************* //
