/*--------------------------------*- C++ -*----------------------------------*\
  =========                 |
  \\      /  F ield         | OpenFOAM: The Open Source CFD Toolbox
   \\    /   O peration     | Website:  https://openfoam.org
    \\  /    A nd           | Version:  6
     \\/     M anipulation  |
\*---------------------------------------------------------------------------*/
FoamFile
{
    version     2.0;
    format      ascii;
    class       volScalarField;
    location    "25899.9999987879673";
    object      nut;
}
// * * * * * * * * * * * * * * * * * * * * * * * * * * * * * * * * * * * * * //

dimensions      [0 2 -1 0 0 0 0];

internalField   nonuniform List<scalar> 
778
(
0.000894295
0.00095305
0.000949591
0.000990818
0.00102861
0.00106293
0.00109488
0.00112569
0.0011567
0.00118965
0.00122106
0.00125088
0.00128025
0.00131182
0.00134476
0.000632381
0.000905113
0.000912416
0.000890313
0.000853375
0.000804068
0.000754936
0.000709649
0.000668801
0.000632167
0.000599527
0.000570212
0.000543512
0.000518594
0.000494344
0.000468989
0.000447947
0.000405496
0.00131076
0.00258104
0.00226499
0.00261426
0.00286773
0.00313651
0.00340466
0.00365181
0.00385076
0.00396656
0.00403456
0.00400636
0.00380626
0.00331103
0.00241804
0.00147221
0.00140364
0.00134357
0.00113089
0.0019263
0.00266959
0.00310841
0.00312876
0.00246974
0.00211211
0.00186434
0.00167641
0.00152695
0.00139938
0.00128658
0.00118162
0.00107893
0.000986779
0.000907308
0.00102219
0.00051402
0.00166399
0.00360421
0.00267232
0.00382219
0.00427085
0.00465066
0.00499568
0.0052994
0.00555672
0.0057584
0.00595366
0.00615885
0.00634698
0.00645825
0.00638234
0.00584255
0.00427264
0.0016479
0.00142695
0.00305318
0.00426002
0.00483012
0.00439166
0.00115887
0.00100764
0.000891031
0.000799823
0.00072725
0.00066867
0.000620879
0.000581997
0.000551676
0.000606634
0.000713653
0.00113049
0.000584696
0.0020052
0.00485807
0.00255738
0.00429823
0.00496249
0.00531813
0.00557978
0.00577347
0.00591812
0.00603536
0.00620179
0.00648258
0.00689187
0.00740613
0.0079227
0.00817623
0.00767601
0.00572547
0.00164146
0.00380345
0.00565805
0.00659887
0.00682979
0.00582925
0.00131995
0.00120047
0.00110801
0.00103117
0.000965694
0.000906902
0.000851472
0.000796412
0.000736928
0.00068863
0.00071405
0.00122452
0.000643594
0.00234191
0.00643262
0.00258021
0.00408668
0.00510798
0.00541133
0.00552175
0.00552644
0.00547203
0.00542387
0.00549373
0.00576662
0.00626682
0.00697474
0.00779578
0.00855222
0.00903234
0.00902677
0.00810197
0.00824517
0.00843483
0.00846106
0.00828824
0.00775671
0.00617194
0.00533083
0.00475488
0.00428645
0.0038276
0.00338337
0.0029488
0.00251478
0.00206886
0.00158902
0.00121239
0.00121212
0.000958666
0.000767713
0.00102093
0.000972426
0.00267352
0.00819577
0.00303762
0.0034467
0.00489476
0.00523125
0.00520473
0.00501784
0.00475049
0.00453003
0.00452537
0.00481124
0.00538105
0.00620161
0.00716231
0.00812245
0.00894055
0.00946391
0.00955988
0.00946473
0.00929722
0.00905895
0.00875237
0.00836219
0.00779313
0.00724519
0.0067479
0.00626668
0.00574761
0.00519367
0.00460215
0.00396795
0.00328708
0.00256465
0.00191026
0.00143429
0.00111331
0.00125849
0.00219717
0.00116075
0.00301206
0.00982732
0.00404814
0.00282383
0.00439872
0.00494871
0.00488784
0.00458496
0.00414552
0.00375902
0.0037482
0.00410912
0.00476111
0.00567782
0.00672154
0.00775533
0.00864602
0.00928487
0.0095795
0.00955772
0.00934832
0.00903048
0.00866624
0.00830272
0.00795109
0.00762852
0.00732555
0.00700172
0.00661091
0.00614077
0.00558429
0.00493884
0.00420706
0.00340765
0.00262572
0.00189596
0.00139547
0.00125504
0.00223513
0.00137236
0.00330341
0.0110644
0.0055205
0.0026885
0.00348533
0.004388
0.0045135
0.0042642
0.00374562
0.00321891
0.00333873
0.00381603
0.00454492
0.00548942
0.00657287
0.00765476
0.00857859
0.00922141
0.00951425
0.00947727
0.00920691
0.00880747
0.00837757
0.00799618
0.0077021
0.007492
0.00732815
0.00714966
0.00690139
0.00655399
0.00609379
0.00551815
0.00483297
0.00405881
0.00325328
0.00243481
0.00169797
0.00113727
0.00331143
0.00181537
0.00339323
0.0104835
0.00683666
0.00347618
0.00236241
0.00289703
0.00338991
0.00343077
0.00302962
0.00294482
0.003251
0.00381199
0.00459979
0.00560119
0.00673658
0.00785162
0.00877191
0.00936478
0.00957367
0.00943144
0.00903911
0.00852422
0.00801333
0.00760568
0.00734686
0.00721982
0.00716233
0.00709384
0.00695124
0.0067004
0.00632782
0.00583228
0.00522069
0.00450978
0.0037287
0.00284849
0.00165103
0.00142091
0.00524689
0.00203656
0.00332459
0.00845834
0.00706624
0.00477493
0.00315158
0.00244021
0.00231229
0.00242185
0.00262531
0.00294965
0.00340932
0.00404036
0.00489701
0.00597692
0.00717446
0.00830536
0.00917722
0.00965739
0.00970735
0.00938461
0.00881693
0.008164
0.0075815
0.00718237
0.00699936
0.00697808
0.00701809
0.00701756
0.00692559
0.00672275
0.00640264
0.0059653
0.00541501
0.00475595
0.00396497
0.00285576
0.0013116
0.00239949
0.00515121
0.00209011
0.0031144
0.00723185
0.00683543
0.00546766
0.0042055
0.00338454
0.00297907
0.00288786
0.00305653
0.00336648
0.00381565
0.00448134
0.00542756
0.00661242
0.00787189
0.00897917
0.00972978
0.0100075
0.00980863
0.00923247
0.00845198
0.00767157
0.00707892
0.00678105
0.00674647
0.00684481
0.00694454
0.00694621
0.00684943
0.00665307
0.00635332
0.0059469
0.00542847
0.00476918
0.00384186
0.00245064
0.00139807
0.00273249
0.00566602
0.00211569
0.00283618
0.00652191
0.00659599
0.00579057
0.00492373
0.00427184
0.00388831
0.00375093
0.00378611
0.00397314
0.00438479
0.00512816
0.00622306
0.00753718
0.00882498
0.00982141
0.010332
0.0102843
0.00973493
0.00884582
0.00785796
0.00703335
0.00656519
0.00647029
0.0065531
0.00668576
0.00677226
0.0067484
0.0066356
0.00643577
0.00614315
0.00574776
0.00521802
0.00444724
0.00317417
0.00176687
0.00167295
0.00325154
0.00567791
0.00215498
0.00258665
0.00583546
0.00630026
0.0059182
0.00536113
0.00489367
0.00458299
0.00443145
0.0043862
0.00454444
0.00506596
0.00603793
0.00736499
0.00879033
0.00999646
0.0107174
0.0108141
0.0102956
0.00931085
0.00810784
0.00702318
0.00632364
0.0060116
0.00597293
0.00606861
0.00619727
0.006278
0.00625394
0.00613888
0.00593388
0.00563198
0.00521019
0.00457985
0.0034901
0.00203531
0.00152539
0.00214913
0.0035464
0.00519264
0.00205242
0.00259452
0.00579255
0.00643755
0.00599078
0.00553971
0.00517055
0.00490445
0.00473189
0.00472266
0.00510636
0.00602722
0.00740684
0.00896697
0.0103475
0.0112279
0.0114176
0.0108956
0.00978661
0.00837675
0.00701229
0.00601844
0.00542488
0.00514463
0.00508614
0.00516078
0.00527973
0.00535987
0.00533487
0.00520524
0.00497465
0.00464191
0.00418505
0.00350968
0.00249472
0.00163318
0.00169312
0.0025199
0.00363069
0.00439068
0.00196039
0.00234181
0.00243591
0.00359182
0.0042185
0.00441167
0.00441399
0.00437057
0.00444917
0.00498372
0.00612877
0.0077448
0.00949471
0.0109976
0.0119322
0.0121053
0.0114767
0.0102018
0.00853078
0.00693538
0.0056794
0.00482791
0.00433669
0.00411496
0.00405877
0.00408926
0.00414125
0.00415032
0.00406393
0.00387111
0.00359355
0.00325839
0.00288855
0.00247841
0.00201521
0.00168336
0.00187696
0.00268925
0.00377249
0.00482005
0.00195932
0.000806837
0.00146415
0.00226084
0.00290328
0.00364579
0.0048977
0.00674103
0.00879188
0.0106669
0.0120781
0.0128257
0.0127744
0.0119201
0.0103513
0.00847749
0.00669637
0.00527446
0.00431585
0.00378583
0.00352713
0.00340431
0.00334326
0.00330222
0.00324648
0.0031438
0.00297958
0.00276597
0.00254348
0.00235068
0.00220782
0.00211122
0.00204945
0.00205105
0.00226603
0.00294212
0.00421174
0.00508588
0.00211398
0.00149733
0.00207843
0.00303619
0.00474513
0.00706212
0.00938744
0.0111927
0.0125047
0.0133115
0.013556
0.0131341
0.0119366
0.0101431
0.00809515
0.00619887
0.00476269
0.00390554
0.00348168
0.00328291
0.00318576
0.00313472
0.00310052
0.00306077
0.00299623
0.00289743
0.00277423
0.00265402
0.00256442
0.00252011
0.00252047
0.0025575
0.00263139
0.0027686
0.0030437
0.00363409
0.00510079
0.00549879
0.00216515
0.00275664
0.00667182
0.00613349
0.00548549
0.00698013
0.00931632
0.0112924
0.0126324
0.0133478
0.0135378
0.0132896
0.012562
0.0113056
0.00956142
0.00755541
0.00569872
0.00440966
0.0037236
0.00340624
0.00326522
0.00321207
0.00320792
0.00322808
0.00325061
0.0032569
0.00323728
0.00319615
0.00315005
0.00311696
0.00310778
0.00312532
0.00316901
0.00324077
0.00335412
0.00354426
0.0038791
0.00450275
0.0060586
0.00622834
0.00220955
0.00263865
0.00509974
0.00658265
0.00840838
0.00934385
0.0103144
0.0108845
0.0110289
0.0108267
0.0103364
0.00958102
0.00856593
0.00732997
0.00600911
0.00483163
0.00395863
0.00342539
0.00313109
0.00298411
0.00293567
0.0029591
0.00303232
0.00313133
0.00323112
0.00331112
0.00336204
0.00338929
0.00340831
0.00343411
0.00347277
0.00352478
0.00358967
0.00367252
0.00378983
0.00396827
0.00423509
0.00464383
0.00559158
0.0065397
0.00221976
0.00247435
0.00212013
0.00210999
0.00217187
0.00222338
0.00215862
0.00203183
0.00188426
0.00173711
0.0015976
0.00146639
0.00134388
0.00123458
0.00114744
0.00109144
0.00106648
0.00105994
0.00106541
0.00107866
0.0010966
0.00111683
0.00113756
0.00115767
0.00117671
0.00119489
0.00121292
0.00123191
0.00125302
0.00127737
0.00130604
0.00134058
0.00138369
0.00143972
0.0015144
0.00161289
0.00173693
0.0018836
0.00204618
0.00221074
0.00205929
)
;

boundaryField
{
    floor
    {
        type            nutkWallFunction;
        Cmu             0.09;
        kappa           0.41;
        E               9.8;
        value           nonuniform List<scalar> 
36
(
0.000160564
7.63838e-05
0.000109491
0.00011036
0.000107729
0.000103314
9.73858e-05
9.14358e-05
8.59108e-05
8.0891e-05
7.63578e-05
7.22919e-05
6.86173e-05
6.52503e-05
6.20895e-05
5.89954e-05
5.574e-05
5.30215e-05
4.74869e-05
4.74868e-05
6.15067e-05
7.04349e-05
7.77744e-05
9.29861e-05
0.000123164
0.000117459
0.000160564
0.000174988
0.000167245
0.000160427
7.63838e-05
0.000160428
0.000136002
0.000194649
0.00016988
0.000193932
)
;
    }
    ceiling
    {
        type            nutkWallFunction;
        Cmu             0.09;
        kappa           0.41;
        E               9.8;
        value           nonuniform List<scalar> 
43
(
0.000284389
0.000246373
0.000245279
0.000251972
0.000257533
0.000250563
0.000236833
0.000220728
0.00020453
0.000189036
0.00017433
0.000160473
0.000147992
0.000137951
0.000131441
0.000128525
0.000127754
0.000128386
0.000129929
0.000132022
0.00013438
0.000136795
0.000139136
0.000141348
0.000143455
0.00014554
0.000147728
0.000150153
0.00015294
0.000156209
0.000160127
0.000164987
0.000171265
0.000179586
0.000190511
0.000204212
0.000220323
0.000238058
0.000255875
0.000239504
0.000270436
0.000280491
0.000177607
)
;
    }
    sWall
    {
        type            nutkWallFunction;
        Cmu             0.09;
        kappa           0.41;
        E               9.8;
        value           nonuniform List<scalar> 9(0.000373883 0.000352078 0.000322982 0.000296637 0.000297467 0.000270525 0.000314304 0.00030188 0.000284491);
    }
    nWall
    {
        type            nutkWallFunction;
        Cmu             0.09;
        kappa           0.41;
        E               9.8;
        value           nonuniform List<scalar> 
14
(
0.000117467
0.000139469
0.000163706
0.000243215
0.00024595
0.000249869
0.00023884
0.000228943
0.000229102
0.000245833
0.000251312
0.000255917
0.000256818
0.00023954
)
;
    }
    sideWalls
    {
        type            empty;
    }
    glass1
    {
        type            nutkWallFunction;
        Cmu             0.09;
        kappa           0.41;
        E               9.8;
        value           nonuniform List<scalar> 9(0.000108246 0.00015688 0.000196732 0.000234343 0.000270783 0.000306131 0.000341745 0.000372066 0.000381367);
    }
    glass2
    {
        type            nutkWallFunction;
        Cmu             0.09;
        kappa           0.41;
        E               9.8;
        value           nonuniform List<scalar> 2(0.000213285 0.000237495);
    }
    sun
    {
        type            nutkWallFunction;
        Cmu             0.09;
        kappa           0.41;
        E               9.8;
        value           nonuniform List<scalar> 
14
(
0.000108205
0.000115179
0.00011477
0.000119637
0.000124077
0.000128094
0.00013182
0.000135401
0.000138994
0.000142801
0.000146418
0.000149843
0.000153206
0.000156812
)
;
    }
    Table_master
    {
        type            nutkWallFunction;
        Cmu             0.09;
        kappa           0.41;
        E               9.8;
        value           nonuniform List<scalar> 9(0.000139236 0.000121609 0.000107811 9.68728e-05 8.80645e-05 8.08785e-05 7.49601e-05 7.01044e-05 6.62905e-05);
    }
    Table_slave
    {
        type            nutkWallFunction;
        Cmu             0.09;
        kappa           0.41;
        E               9.8;
        value           nonuniform List<scalar> 9(0.000157727 0.000144037 0.000133339 0.00012437 0.000116668 0.000109701 0.000103084 9.64609e-05 8.92449e-05);
    }
    inlet
    {
        type            calculated;
        value           uniform 0.000167705;
    }
    outlet
    {
        type            calculated;
        value           nonuniform List<scalar> 2(0.00275664 0.00667182);
    }
}


// ************************************************************************* //
