/*--------------------------------*- C++ -*----------------------------------*\
  =========                 |
  \\      /  F ield         | OpenFOAM: The Open Source CFD Toolbox
   \\    /   O peration     | Website:  https://openfoam.org
    \\  /    A nd           | Version:  6
     \\/     M anipulation  |
\*---------------------------------------------------------------------------*/
FoamFile
{
    version     2.0;
    format      ascii;
    class       volVectorField;
    location    "2330";
    object      U;
}
// * * * * * * * * * * * * * * * * * * * * * * * * * * * * * * * * * * * * * //

dimensions      [0 1 -1 0 0 0 0];

internalField   nonuniform List<vector> 
458
(
(0.0348251 0.0885225 0)
(-0.172081 0.0265841 0)
(-0.199349 0.0191133 0)
(-0.233225 0.0130812 0)
(-0.258397 0.00641377 0)
(-0.273602 -0.000804823 0)
(-0.276731 -0.00877819 0)
(-0.265484 -0.0177782 0)
(-0.239426 -0.0274272 0)
(-0.199714 -0.0361121 0)
(-0.150448 -0.0420519 0)
(-0.0978303 -0.0436519 0)
(-0.0487296 -0.039082 0)
(-0.00627028 -0.023685 0)
(-0.0102634 0.00977275 0)
(-0.0102386 0.0105134 0)
(-0.0372613 -0.0174866 0)
(-0.0145117 -0.029103 0)
(0.0136673 -0.0251833 0)
(0.0334388 -0.0178893 0)
(0.0480553 -0.00955481 0)
(0.0568147 -0.00517621 0)
(0.0606935 -0.00363237 0)
(0.0621291 -0.00308269 0)
(0.0627785 -0.00275986 0)
(0.0630885 -0.00250942 0)
(0.0630277 -0.00224146 0)
(0.0624301 -0.00179744 0)
(0.0608386 -0.000838869 0)
(0.0572369 0.00107434 0)
(0.0505179 0.00317035 0)
(0.0451139 0.00508598 0)
(-0.0141475 0.0219478 0)
(0.214273 0.18189 0)
(-0.162149 0.0709936 0)
(-0.162942 0.0577629 0)
(-0.198658 0.0457438 0)
(-0.224134 0.0319886 0)
(-0.24011 0.0161759 0)
(-0.244613 -0.00240978 0)
(-0.235118 -0.0239667 0)
(-0.211869 -0.0461701 0)
(-0.176486 -0.0649273 0)
(-0.133356 -0.0764278 0)
(-0.088127 -0.0782002 0)
(-0.0462599 -0.0687313 0)
(-0.0100266 -0.0460178 0)
(0.0194103 -0.0133806 0)
(0.0442434 0.0078498 0)
(0.0548479 0.0347584 0)
(-0.0118082 0.0706832 0)
(0.0670393 0.0439827 0)
(0.010286 -0.021834 0)
(0.0265174 -0.0378985 0)
(0.0407455 -0.035645 0)
(0.0531346 -0.0273416 0)
(0.0595567 -0.0120938 0)
(0.0611769 -0.00275367 0)
(0.0612267 0.000745373 0)
(0.0613914 0.00202296 0)
(0.0617167 0.00272163 0)
(0.0619417 0.00322148 0)
(0.0619992 0.00367482 0)
(0.0618953 0.00440708 0)
(0.0611843 0.0062049 0)
(0.0577878 0.0112232 0)
(0.0490972 0.0155321 0)
(0.0476927 0.0187032 0)
(-0.0584298 0.0475492 0)
(0.379535 0.272956 0)
(-0.180118 0.113734 0)
(-0.123512 0.09411 0)
(-0.159198 0.072435 0)
(-0.1826 0.0495034 0)
(-0.198411 0.023643 0)
(-0.204063 -0.00653476 0)
(-0.195374 -0.0409797 0)
(-0.173592 -0.0757813 0)
(-0.141425 -0.10365 0)
(-0.103841 -0.118954 0)
(-0.0658951 -0.119157 0)
(-0.0318228 -0.10412 0)
(-0.00227678 -0.0743988 0)
(0.0220312 -0.0400741 0)
(0.0375976 -0.0152198 0)
(0.0431797 0.0131638 0)
(-0.0236593 0.0623205 0)
(0.122491 -0.00752991 0)
(0.0725108 -0.0320895 0)
(0.0643126 -0.0419283 0)
(0.0672612 -0.0417567 0)
(0.0718715 -0.0380439 0)
(0.0734896 -0.0282281 0)
(0.0643663 -0.0183292 0)
(0.0574118 -0.0130271 0)
(0.0548132 -0.0100786 0)
(0.0541218 -0.00818606 0)
(0.0538876 -0.00689751 0)
(0.0539578 -0.00590261 0)
(0.0547571 -0.00475358 0)
(0.0572078 -0.00139893 0)
(0.0561023 0.0149935 0)
(0.0445865 0.0258685 0)
(0.0541327 0.0332456 0)
(-0.0993799 0.072793 0)
(0.53003 0.346653 0)
(-0.21667 0.151756 0)
(-0.0801995 0.125837 0)
(-0.115538 0.0962974 0)
(-0.133417 0.0672246 0)
(-0.14693 0.0337635 0)
(-0.152516 -0.00711115 0)
(-0.142621 -0.0550542 0)
(-0.121288 -0.102309 0)
(-0.0929785 -0.137841 0)
(-0.0625314 -0.155427 0)
(-0.033572 -0.153428 0)
(-0.00879761 -0.133439 0)
(0.0128654 -0.0979242 0)
(0.0304329 -0.0589733 0)
(0.0443572 -0.0228971 0)
(0.0599558 0.0131495 0)
(0.058824 0.0534416 0)
(0.100335 0.0615059 0)
(0.0988173 -0.00244027 0)
(0.0851527 -0.029388 0)
(0.0784692 -0.03769 0)
(0.0736178 -0.0383939 0)
(0.0670222 -0.0341075 0)
(0.0666028 -0.0208387 0)
(0.0772785 -0.0138302 0)
(0.0862413 -0.0101072 0)
(0.0916403 -0.00782431 0)
(0.0948798 -0.00591657 0)
(0.0962859 -0.00385549 0)
(0.0945177 -0.00119012 0)
(0.0882555 0.00248028 0)
(0.0757135 0.00774298 0)
(0.0597993 0.0250975 0)
(0.0440617 0.0405826 0)
(0.0629783 0.0533437 0)
(-0.131389 0.0942768 0)
(0.662684 0.403811 0)
(-0.262354 0.182679 0)
(-0.0350338 0.145258 0)
(-0.0687491 0.11132 0)
(-0.0779457 0.0792337 0)
(-0.0862933 0.0412502 0)
(-0.0890487 -0.00798737 0)
(-0.0740282 -0.0688146 0)
(-0.0534822 -0.125902 0)
(-0.0315786 -0.165074 0)
(-0.0112747 -0.181843 0)
(0.00616196 -0.175992 0)
(0.019326 -0.151484 0)
(0.030344 -0.114539 0)
(0.040194 -0.0729585 0)
(0.0494385 -0.0337231 0)
(0.0619372 0.000675184 0)
(0.07604 0.0197173 0)
(0.0903292 -0.000566305 0)
(0.0896867 -0.0213719 0)
(0.0826202 -0.0300333 0)
(0.0738136 -0.0325492 0)
(0.0655687 -0.031629 0)
(0.0586242 -0.0266317 0)
(0.0568426 -0.0155114 0)
(0.0603959 -0.00902607 0)
(0.0647371 -0.00637165 0)
(0.0684601 -0.00482943 0)
(0.0717027 -0.00274929 0)
(0.0742094 0.000781394 0)
(0.0750588 0.00596833 0)
(0.0731647 0.0129866 0)
(0.0682555 0.0224379 0)
(0.0612085 0.0371776 0)
(0.0500562 0.053629 0)
(0.0748591 0.0727478 0)
(-0.00684621 0.10138 0)
(0.0557881 0.150674 0)
(-0.0835196 0.0748407 0)
(-0.277797 0.000488131 0)
(0.761893 0.451326 0)
(-0.308551 0.20334 0)
(0.0024303 0.143886 0)
(-0.0205836 0.116259 0)
(-0.0197892 0.0857225 0)
(-0.0214988 0.0472958 0)
(-0.0143131 -0.00693651 0)
(0.0103169 -0.0859257 0)
(0.0269257 -0.146193 0)
(0.0388277 -0.182425 0)
(0.0460476 -0.194555 0)
(0.0488956 -0.185052 0)
(0.0486308 -0.158121 0)
(0.0472259 -0.119918 0)
(0.0460521 -0.0779395 0)
(0.0464689 -0.0397076 0)
(0.050821 -0.00999122 0)
(0.0599697 0.00482447 0)
(0.0662467 -0.00105149 0)
(0.0649938 -0.0110135 0)
(0.0586084 -0.0188059 0)
(0.0504375 -0.0229108 0)
(0.0427993 -0.0236604 0)
(0.0368232 -0.021134 0)
(0.0342716 -0.0157699 0)
(0.0354207 -0.0122936 0)
(0.0383745 -0.0108625 0)
(0.0420305 -0.00977452 0)
(0.0460903 -0.00763836 0)
(0.0502727 -0.00338428 0)
(0.0544834 0.00368383 0)
(0.0570004 0.0131865 0)
(0.0581667 0.0249441 0)
(0.0592916 0.0395783 0)
(0.0583678 0.0559998 0)
(0.079709 0.0766952 0)
(0.0654483 0.0889836 0)
(0.0997222 0.0967313 0)
(0.117478 0.0571988 0)
(-0.136895 -0.0299279 0)
(0.815615 0.49419 0)
(-0.334123 0.187371 0)
(0.032241 0.0938001 0)
(0.0390632 0.101054 0)
(0.0459319 0.0830002 0)
(0.0516246 0.0393707 0)
(0.0790991 -0.0311714 0)
(0.103112 -0.103704 0)
(0.113288 -0.157016 0)
(0.112863 -0.186332 0)
(0.104583 -0.192433 0)
(0.0907913 -0.178777 0)
(0.0740954 -0.14977 0)
(0.0575015 -0.111563 0)
(0.0429718 -0.0709101 0)
(0.0326167 -0.035696 0)
(0.0281006 -0.0107571 0)
(0.0295011 0.000990791 0)
(0.0311371 -0.00028033 0)
(0.029636 -0.00656854 0)
(0.0249845 -0.0126298 0)
(0.0188651 -0.0163689 0)
(0.0128395 -0.0177421 0)
(0.00803306 -0.0171038 0)
(0.00567186 -0.0151948 0)
(0.00601388 -0.0141005 0)
(0.00805308 -0.0139674 0)
(0.0110514 -0.0137417 0)
(0.0148466 -0.012361 0)
(0.0195244 -0.00873951 0)
(0.0256933 -0.00163548 0)
(0.0333029 0.00886892 0)
(0.0400694 0.0208903 0)
(0.0478782 0.0341601 0)
(0.0558776 0.0479597 0)
(0.0754522 0.0644567 0)
(0.088233 0.0697703 0)
(0.11967 0.0632092 0)
(0.163391 0.0513056 0)
(-0.0203523 0.0954881 0)
(0.92187 0.497288 0)
(-0.0766778 0.16742 0)
(0.110609 0.0261622 0)
(0.163738 0.0227932 0)
(0.1614 0.0155469 0)
(0.162866 -0.0293632 0)
(0.19649 -0.0804107 0)
(0.211273 -0.125543 0)
(0.205362 -0.158278 0)
(0.185093 -0.173983 0)
(0.155586 -0.171675 0)
(0.121087 -0.153974 0)
(0.0852903 -0.124274 0)
(0.0523631 -0.0880741 0)
(0.0244575 -0.0510593 0)
(0.00511287 -0.021929 0)
(-0.00463337 -0.00442875 0)
(-0.00655999 0.00175782 0)
(-0.00644077 0.000662861 0)
(-0.00764139 -0.00366312 0)
(-0.0109411 -0.00801285 0)
(-0.0154395 -0.0110769 0)
(-0.0200738 -0.0128473 0)
(-0.0239381 -0.0136836 0)
(-0.0263201 -0.0141347 0)
(-0.0272117 -0.014886 0)
(-0.0271756 -0.0158702 0)
(-0.0265939 -0.0165838 0)
(-0.0254664 -0.0164982 0)
(-0.023487 -0.0150358 0)
(-0.0198617 -0.0114654 0)
(-0.011709 -0.00490945 0)
(-9.39041e-05 0.00445936 0)
(0.0110864 0.0137605 0)
(0.0226899 0.0208655 0)
(0.0398999 0.0277362 0)
(0.0554299 0.0224378 0)
(0.079569 0.00564779 0)
(0.146408 0.0479781 0)
(-0.428338 0.212666 0)
(1.06591 0.444166 0)
(0.518239 0.298302 0)
(0.529534 0.249859 0)
(0.518392 0.182906 0)
(0.469839 0.122439 0)
(0.433159 0.0601129 0)
(0.392049 -0.0074239 0)
(0.342844 -0.0669803 0)
(0.289086 -0.107862 0)
(0.232747 -0.126612 0)
(0.175364 -0.1251 0)
(0.118905 -0.108912 0)
(0.0654557 -0.0822842 0)
(0.0202339 -0.0512615 0)
(-0.0161044 -0.0208444 0)
(-0.0329492 -0.00607265 0)
(-0.0401271 0.000441221 0)
(-0.0416837 0.00220653 0)
(-0.042062 0.0010077 0)
(-0.0432039 -0.00163957 0)
(-0.0458317 -0.004517 0)
(-0.0494806 -0.0070446 0)
(-0.0535056 -0.00913449 0)
(-0.0573701 -0.0108632 0)
(-0.0608175 -0.0123652 0)
(-0.0640105 -0.0137468 0)
(-0.0673529 -0.0148454 0)
(-0.0712204 -0.0153017 0)
(-0.0759668 -0.0146314 0)
(-0.0820651 -0.0121813 0)
(-0.0902075 -0.00711438 0)
(-0.101118 0.00142847 0)
(-0.112752 0.0133222 0)
(-0.127984 0.0284141 0)
(-0.152908 0.0467844 0)
(-0.190232 0.0673933 0)
(-0.241634 0.0862252 0)
(-0.297562 0.0999182 0)
(-0.371646 0.106911 0)
(-0.65067 0.106304 0)
(0.233924 0.0528324 0)
(0.30589 0.115963 0)
(0.321218 0.0913663 0)
(0.299643 0.039576 0)
(0.275047 -0.0106046 0)
(0.244387 -0.0469409 0)
(0.203097 -0.0684138 0)
(0.154002 -0.0754159 0)
(0.100435 -0.0686987 0)
(0.0461621 -0.0529155 0)
(-0.00863419 -0.029512 0)
(-0.0451363 -0.0114961 0)
(-0.0635941 -0.00313908 0)
(-0.0709248 -0.000757953 0)
(-0.0731606 -0.000284258 0)
(-0.0734787 -0.000982709 0)
(-0.0737804 -0.00258379 0)
(-0.0749186 -0.00467904 0)
(-0.0771334 -0.0067676 0)
(-0.0803885 -0.00854741 0)
(-0.0841845 -0.010019 0)
(-0.0882913 -0.0111407 0)
(-0.0927205 -0.0119152 0)
(-0.0976256 -0.0123094 0)
(-0.103157 -0.0121328 0)
(-0.109348 -0.0110405 0)
(-0.116065 -0.00856332 0)
(-0.122967 -0.0041573 0)
(-0.129429 0.00273874 0)
(-0.134402 0.0123366 0)
(-0.13837 0.0256174 0)
(-0.141807 0.0431792 0)
(-0.146018 0.0642222 0)
(-0.151773 0.0850512 0)
(-0.155358 0.0955473 0)
(-0.141303 0.0734013 0)
(-0.110248 -0.0250082 0)
(-0.286611 -0.213741 0)
(0.120027 0.324336 0)
(0.00839064 0.203592 0)
(0.0392637 0.118448 0)
(0.0584765 0.0604332 0)
(0.0631233 0.0216226 0)
(0.0601088 -0.00478729 0)
(0.0401943 -0.0199126 0)
(0.00541406 -0.0189521 0)
(-0.0366014 -0.00171723 0)
(-0.0701194 0.0128803 0)
(-0.09123 0.0208817 0)
(-0.100243 0.0232644 0)
(-0.102467 0.023392 0)
(-0.102413 0.0234446 0)
(-0.101541 0.0241585 0)
(-0.100509 0.0252849 0)
(-0.0997869 0.026426 0)
(-0.0996596 0.0271762 0)
(-0.100185 0.0271113 0)
(-0.101326 0.0259065 0)
(-0.10312 0.0238733 0)
(-0.105496 0.0216293 0)
(-0.108388 0.0194501 0)
(-0.111706 0.017481 0)
(-0.115314 0.0158323 0)
(-0.118996 0.0146132 0)
(-0.122445 0.0139603 0)
(-0.125176 0.0140308 0)
(-0.126372 0.0155216 0)
(-0.124865 0.0198899 0)
(-0.119076 0.0282963 0)
(-0.107619 0.0417408 0)
(-0.0903519 0.0602413 0)
(-0.0683173 0.0804254 0)
(-0.0434463 0.0948377 0)
(-0.00758441 0.0857778 0)
(0.14694 0.00930472 0)
(-0.209928 -0.129684 0)
(-0.42212 -0.516031 0)
(-0.63732 -0.143275 0)
(-0.449399 0.177759 0)
(-0.357934 0.0560779 0)
(-0.2139 -0.00554163 0)
(-0.145612 -0.0477913 0)
(-0.117168 -0.0705399 0)
(-0.112988 -0.0713627 0)
(-0.122348 -0.0626888 0)
(-0.134864 -0.0549773 0)
(-0.140347 -0.0505065 0)
(-0.138588 -0.049067 0)
(-0.134127 -0.0499523 0)
(-0.128945 -0.0527746 0)
(-0.124482 -0.0563023 0)
(-0.121038 -0.0599458 0)
(-0.118239 -0.0635878 0)
(-0.115826 -0.0672844 0)
(-0.113758 -0.0708855 0)
(-0.112109 -0.0739021 0)
(-0.11101 -0.0756824 0)
(-0.110623 -0.0757899 0)
(-0.111053 -0.0743576 0)
(-0.112259 -0.0719865 0)
(-0.11407 -0.0689149 0)
(-0.116261 -0.0652754 0)
(-0.118549 -0.0610879 0)
(-0.120566 -0.056279 0)
(-0.121832 -0.0506326 0)
(-0.121711 -0.0438023 0)
(-0.119187 -0.035815 0)
(-0.112354 -0.0266903 0)
(-0.0984065 -0.0158836 0)
(-0.0748448 -0.00248676 0)
(-0.041551 0.014364 0)
(0.00931603 0.0362841 0)
(0.0618658 0.0423469 0)
(0.109598 0.0240443 0)
(0.172058 -0.0159431 0)
(-0.19629 -0.0826847 0)
)
;

boundaryField
{
    floor
    {
        type            noSlip;
    }
    ceiling
    {
        type            noSlip;
    }
    sWall
    {
        type            noSlip;
    }
    nWall
    {
        type            noSlip;
    }
    sideWalls
    {
        type            empty;
    }
    glass1
    {
        type            noSlip;
    }
    glass2
    {
        type            noSlip;
    }
    sun
    {
        type            noSlip;
    }
    Table_master
    {
        type            noSlip;
    }
    Table_slave
    {
        type            noSlip;
    }
    inlet
    {
        type            fixedValue;
        value           uniform (0.46194 -0.191342 0);
    }
    outlet
    {
        type            zeroGradient;
    }
}


// ************************************************************************* //
