/*--------------------------------*- C++ -*----------------------------------*\
  =========                 |
  \\      /  F ield         | OpenFOAM: The Open Source CFD Toolbox
   \\    /   O peration     | Website:  https://openfoam.org
    \\  /    A nd           | Version:  6
     \\/     M anipulation  |
\*---------------------------------------------------------------------------*/
FoamFile
{
    version     2.0;
    format      ascii;
    class       volScalarField;
    location    "180";
    object      alphat;
}
// * * * * * * * * * * * * * * * * * * * * * * * * * * * * * * * * * * * * * //

dimensions      [1 -1 -1 0 0 0 0];

internalField   nonuniform List<scalar> 
458
(
0.00137386
0.00151173
0.00156079
0.00164219
0.00171878
0.00179372
0.00187226
0.00194431
0.00199951
0.00202776
0.00201806
0.00195925
0.00181334
0.00154356
0.00127232
0.000635961
0.000751414
0.000876753
0.00093988
0.000933389
0.000870643
0.000801222
0.000739814
0.000687261
0.000642141
0.000603174
0.000569162
0.00053917
0.000512078
0.000486429
0.000460328
0.00043571
0.000393733
0.00179786
0.00435748
0.00415951
0.00480614
0.00548016
0.00614263
0.00667098
0.00715812
0.00763681
0.00806072
0.00837314
0.00852319
0.00841986
0.00779754
0.00557274
0.00165708
0.00140558
0.00114142
0.000619825
0.00160971
0.00249655
0.00317052
0.00333801
0.0023069
0.00190825
0.00164658
0.00145784
0.00131586
0.00120536
0.00111764
0.00103834
0.00095298
0.00086974
0.000797355
0.000878124
0.000461671
0.00214853
0.0058975
0.00515425
0.00612967
0.00663512
0.00700179
0.00728531
0.00760752
0.00801867
0.00851321
0.00903703
0.00951498
0.00979403
0.00963008
0.00879651
0.00692751
0.00504447
0.0013926
0.000906627
0.00177371
0.00281415
0.00380862
0.00401672
0.00118345
0.00102146
0.000887986
0.00078074
0.000694743
0.000625449
0.000569255
0.000524442
0.000491468
0.000553631
0.000655557
0.00102337
0.00051408
0.00248259
0.00736852
0.00515232
0.00635554
0.00661044
0.00663352
0.00670032
0.00689741
0.00725719
0.00781211
0.00847938
0.00914536
0.00959159
0.00972262
0.00948152
0.00877067
0.00725971
0.00387437
0.00157843
0.00195302
0.002864
0.00410605
0.00521608
0.00527146
0.0013569
0.00122964
0.00113548
0.00105996
0.000995153
0.000936863
0.000879936
0.00082046
0.00075341
0.000686155
0.000678845
0.00117762
0.000570562
0.00282452
0.00928647
0.00545441
0.00615097
0.00645792
0.00629641
0.00624026
0.00638714
0.00671801
0.0073288
0.00806983
0.00874862
0.00920104
0.00937482
0.00931665
0.00905341
0.00833576
0.00679875
0.00597674
0.00629338
0.00692012
0.00758644
0.008021
0.00793078
0.00662307
0.00588437
0.00541379
0.00504372
0.00465351
0.00417182
0.00360413
0.00296432
0.00228697
0.00166708
0.00123016
0.0012276
0.000920461
0.00074182
0.000813807
0.000890217
0.00319374
0.0114385
0.00724831
0.00601765
0.00638646
0.00642728
0.00620975
0.00629047
0.00658885
0.00718467
0.00795543
0.00864977
0.00906139
0.00916451
0.00910013
0.00904191
0.00899505
0.00882287
0.0090207
0.00955939
0.00998128
0.0101645
0.010067
0.00967327
0.00896699
0.0083035
0.00772843
0.00718777
0.00661313
0.00597074
0.00525306
0.00445433
0.00359177
0.00273883
0.00205024
0.00157433
0.00123271
0.00104346
0.00132421
0.000923402
0.0035403
0.012958
0.0100963
0.00746149
0.00698482
0.00690941
0.00658165
0.00644032
0.0066894
0.00733102
0.00815854
0.00886294
0.00921579
0.00924402
0.00920737
0.00944624
0.0100063
0.0105687
0.0111441
0.0115819
0.0116617
0.0114313
0.0109575
0.0103117
0.00956609
0.00883621
0.00815094
0.00749733
0.0068606
0.00624353
0.00563607
0.00498077
0.00426467
0.00350541
0.00282615
0.00226048
0.00186533
0.00168429
0.00158749
0.00110948
0.00361576
0.0115211
0.0101368
0.00903552
0.00836395
0.00744603
0.00669881
0.00649935
0.00690637
0.00774174
0.00867138
0.00934526
0.00957399
0.00954968
0.00972354
0.01052
0.0112618
0.01176
0.0121005
0.0121874
0.0119174
0.0113522
0.0105851
0.00969877
0.00877674
0.00790211
0.00710744
0.00639479
0.00577449
0.0052724
0.00490737
0.0046388
0.0042884
0.00384666
0.00347578
0.00327375
0.00330692
0.0034586
0.00405847
0.00170399
0.00353002
0.00422476
0.00464244
0.00483294
0.00482104
0.00490142
0.00529364
0.006141
0.00734313
0.00859526
0.00954953
0.00997203
0.00986457
0.00999877
0.0105283
0.0111442
0.0115175
0.0116759
0.0116344
0.0113303
0.0107387
0.00991289
0.00892896
0.00787326
0.00684691
0.00593345
0.00515989
0.00452367
0.00401703
0.00362458
0.00331998
0.00309434
0.00293447
0.00281509
0.00273786
0.0026904
0.00261718
0.00248259
0.00231841
0.00160198
0.00133869
0.00240478
0.00375351
0.00534606
0.00705459
0.00865149
0.00984225
0.0104443
0.0104496
0.0101701
0.00972097
0.00980093
0.0101064
0.0102891
0.0102859
0.0101098
0.00972371
0.00909227
0.00823803
0.00724417
0.00622236
0.00528292
0.00449853
0.00388446
0.00342332
0.00309113
0.00286587
0.0027273
0.00265826
0.00263151
0.00263094
0.00264278
0.00265035
0.00262346
0.00252021
0.00233208
0.00208414
0.0013207
0.00247027
0.00582975
0.00860346
0.0102923
0.0109717
0.0109558
0.0104659
0.0096114
0.00867051
0.00800746
0.00765785
0.00751335
0.00739572
0.00725282
0.00706081
0.0067692
0.00633086
0.00574453
0.00507038
0.00440424
0.00382788
0.00337694
0.00304503
0.00280795
0.00264285
0.00253385
0.00247099
0.00244812
0.00246082
0.00250458
0.00257392
0.0026577
0.00273426
0.00277718
0.00273349
0.00271726
0.00270683
0.00134679
0.00262307
0.00271003
0.00278644
0.00312211
0.0029582
0.00264881
0.00235131
0.00212711
0.00193487
0.00174168
0.00155835
0.00140505
0.00129449
0.00122196
0.00117253
0.00113348
0.00109584
0.00105436
0.0010077
0.000958524
0.000911834
0.000872371
0.000842766
0.000823477
0.000813856
0.00081325
0.000821444
0.000838518
0.000864555
0.000899484
0.000943113
0.000995316
0.00105614
0.00112562
0.00120277
0.00129325
0.0013261
0.00129277
0.00120931
0.00112672
)
;

boundaryField
{
    floor
    {
        type            compressible::alphatWallFunction;
        Prt             0.85;
        value           nonuniform List<scalar> 
36
(
0.000180073
8.97314e-05
0.000106713
0.000124799
0.000133791
0.000132871
0.000123928
0.000113943
0.000105025
9.73221e-05
9.06519e-05
8.48452e-05
7.97391e-05
7.52055e-05
7.10832e-05
6.71553e-05
6.31313e-05
5.93095e-05
5.27285e-05
5.27278e-05
6.33399e-05
7.13904e-05
7.99531e-05
0.000105331
0.000115782
0.000126747
0.000180071
0.000231969
0.000198224
0.000162035
8.97303e-05
0.000162034
8.73289e-05
0.000196464
0.000129057
0.000221483
)
;
    }
    ceiling
    {
        type            compressible::alphatWallFunction;
        Prt             0.85;
        value           nonuniform List<scalar> 
43
(
0.000356979
0.000367963
0.000377586
0.000419628
0.000399259
0.000360413
0.000322593
0.000293751
0.000268756
0.000243358
0.000218968
0.000198328
0.000183287
0.00017334
0.000166523
0.000161114
0.000155881
0.00015009
0.000143543
0.000136602
0.000129974
0.00012434
0.000120093
0.000117315
0.000115925
0.000115836
0.000117015
0.000119471
0.000123206
0.000128197
0.0001344
0.000141778
0.000150319
0.000160006
0.000170683
0.000183105
0.000187591
0.000183041
0.000171586
0.000160164
0.000470224
0.000554661
0.00033745
)
;
    }
    sWall
    {
        type            compressible::alphatWallFunction;
        Prt             0.85;
        value           uniform 0.000355737;
    }
    nWall
    {
        type            compressible::alphatWallFunction;
        Prt             0.85;
        value           nonuniform List<scalar> 6(0.000126543 0.000131265 0.000157416 0.000186534 0.000190087 0.000159842);
    }
    sideWalls
    {
        type            empty;
    }
    glass1
    {
        type            compressible::alphatWallFunction;
        Prt             0.85;
        value           nonuniform List<scalar> 9(0.000189133 0.000245059 0.000290335 0.000332811 0.000375724 0.000421496 0.000464005 0.000473341 0.00046313);
    }
    glass2
    {
        type            compressible::alphatWallFunction;
        Prt             0.85;
        value           nonuniform List<scalar> 2(0.000236619 0.000223189);
    }
    sun
    {
        type            compressible::alphatWallFunction;
        Prt             0.85;
        value           nonuniform List<scalar> 
14
(
0.000193937
0.000212542
0.000219121
0.000229988
0.000240158
0.000250061
0.00026039
0.000269825
0.000277028
0.000280704
0.000279441
0.000271775
0.000252639
0.000216811
)
;
    }
    Table_master
    {
        type            compressible::alphatWallFunction;
        Prt             0.85;
        value           nonuniform List<scalar> 9(0.000168002 0.000145439 0.000126535 0.000111102 9.85432e-05 8.82867e-05 7.98666e-05 7.30782e-05 6.8037e-05);
    }
    Table_slave
    {
        type            compressible::alphatWallFunction;
        Prt             0.85;
        value           nonuniform List<scalar> 9(0.000191777 0.000174373 0.000161364 0.00015084 0.000141741 0.000133497 0.000125387 0.000116848 0.000107132);
    }
    inlet
    {
        type            fixedValue;
        value           uniform 1.94e-05;
    }
    outlet
    {
        type            zeroGradient;
    }
}


// ************************************************************************* //
