/*--------------------------------*- C++ -*----------------------------------*\
  =========                 |
  \\      /  F ield         | OpenFOAM: The Open Source CFD Toolbox
   \\    /   O peration     | Website:  https://openfoam.org
    \\  /    A nd           | Version:  6
     \\/     M anipulation  |
\*---------------------------------------------------------------------------*/
FoamFile
{
    version     2.0;
    format      ascii;
    class       volScalarField;
    location    "180";
    object      epsilon;
}
// * * * * * * * * * * * * * * * * * * * * * * * * * * * * * * * * * * * * * //

dimensions      [0 2 -3 0 0 0 0];

internalField   nonuniform List<scalar> 
458
(
0.0005836
0.000775487
0.000853344
0.000993902
0.00113951
0.00129509
0.00147269
0.00164923
0.00179356
0.00187047
0.00184365
0.00168717
0.00133771
0.000825312
0.000462354
5.79223e-05
9.55074e-05
0.000151691
0.000186889
0.000183071
0.000148595
0.000115823
9.11926e-05
7.31159e-05
5.96477e-05
4.94409e-05
4.15454e-05
3.53227e-05
3.02653e-05
2.59454e-05
2.19925e-05
1.86532e-05
1.377e-05
0.00131014
0.00179654
0.000720916
0.000715752
0.000753022
0.000820652
0.000930565
0.00107101
0.00120699
0.00129295
0.00129132
0.00119534
0.00101244
0.000791767
0.00061747
0.00102138
0.000623423
0.000333941
5.36337e-05
0.000103751
0.000146249
0.00015787
0.000158143
0.000163327
0.000126708
9.47101e-05
7.12855e-05
5.44777e-05
4.23865e-05
3.35574e-05
2.69861e-05
2.20358e-05
1.88164e-05
1.71837e-05
2.86706e-05
2.21974e-05
0.00224026
0.0040147
0.000797598
0.000643606
0.000675181
0.000762953
0.000903326
0.00108045
0.0012427
0.00134376
0.00135425
0.00126989
0.00109717
0.00089416
0.000706553
0.000588612
0.000516216
0.00060647
0.000167713
0.000195458
0.000199167
0.00019137
0.00018817
0.000373156
0.000239963
0.000157665
0.000107172
7.55241e-05
5.51118e-05
4.15574e-05
3.25001e-05
2.67513e-05
2.0346e-05
1.72211e-05
4.69254e-05
3.06491e-05
0.00346294
0.00807289
0.00113223
0.000613215
0.000624963
0.000737871
0.000934573
0.00116843
0.00134947
0.00145405
0.00146582
0.0013702
0.00118565
0.000966413
0.000760718
0.000609357
0.00052153
0.000531844
0.000883277
0.000560632
0.00039008
0.000303007
0.000252963
0.000233447
0.000562955
0.000419094
0.000330097
0.000268578
0.000222317
0.000185533
0.000153754
0.000124658
9.6539e-05
5.41723e-05
3.15571e-05
7.68085e-05
4.19077e-05
0.00510992
0.0143901
0.00210854
0.000674646
0.000601846
0.000750966
0.00110126
0.00140724
0.00158382
0.00167277
0.00166316
0.00153474
0.00130243
0.00102485
0.000775758
0.000596473
0.000487558
0.000455763
0.000483269
0.000425222
0.00037087
0.000325695
0.000282391
0.000241621
0.000226185
0.000202596
0.000182491
0.00016398
0.000145752
0.000127535
0.00010918
9.12233e-05
7.42471e-05
5.47912e-05
3.83186e-05
5.81935e-05
7.40538e-05
9.22368e-05
0.000121917
0.000159576
0.0074005
0.0216595
0.00472226
0.00119172
0.000805446
0.000980568
0.00160929
0.00188151
0.00199112
0.00202709
0.00197428
0.00178405
0.0014653
0.00109508
0.000774929
0.000556453
0.000440217
0.000408173
0.000416898
0.00041293
0.000390956
0.000351678
0.000301136
0.000248474
0.000207771
0.000182261
0.000165776
0.00015141
0.000136372
0.000119991
0.000102717
8.57781e-05
7.03518e-05
5.62539e-05
4.59095e-05
4.95715e-05
6.6913e-05
8.29668e-05
0.00017714
0.000178011
0.0100972
0.0261648
0.00977649
0.00385859
0.0025313
0.0026127
0.00273629
0.00269441
0.00262647
0.00255899
0.00241674
0.0021158
0.00166717
0.00117097
0.000766126
0.000513833
0.000403543
0.000390309
0.000411263
0.000416533
0.000391276
0.000343923
0.000287275
0.000233411
0.000193748
0.000171597
0.000159679
0.000150924
0.000142519
0.000132948
0.000121333
0.000108805
9.67456e-05
8.59261e-05
8.04401e-05
8.52835e-05
0.000109086
0.000157497
0.000288639
0.0003087
0.0107818
0.0285611
0.015951
0.0102936
0.00741479
0.00570861
0.00453707
0.00385028
0.00349853
0.0032798
0.0029906
0.00250175
0.00185674
0.00118829
0.000702931
0.000445042
0.000372109
0.000374645
0.00038887
0.000379616
0.000343781
0.000292715
0.000241504
0.00020003
0.000173496
0.000160869
0.00015703
0.000158343
0.000163867
0.000173747
0.00018693
0.00020008
0.000216285
0.000243799
0.000293334
0.000420663
0.000701745
0.0011787
0.00349301
0.00112018
0.0100662
0.0172041
0.0130959
0.00990678
0.00763614
0.0060796
0.00513325
0.00466203
0.00442473
0.00414809
0.00362531
0.00278477
0.00184048
0.00094049
0.00052595
0.00037597
0.000334513
0.000328363
0.000321376
0.000298221
0.000262117
0.000222751
0.000188011
0.000162924
0.00014894
0.000144567
0.000147489
0.000156837
0.000173394
0.000198974
0.000236038
0.000288981
0.000363045
0.000470904
0.000624108
0.000828273
0.00106477
0.00128795
0.00147696
0.000932528
0.00284641
0.00401663
0.00502515
0.00577915
0.00618549
0.00620374
0.00577539
0.00489492
0.00362924
0.00195613
0.00100502
0.000544224
0.000366816
0.000299161
0.000272615
0.0002565
0.000236557
0.000209613
0.000180126
0.000153838
0.000134025
0.000121484
0.000115386
0.000114506
0.000118306
0.000127181
0.000142291
0.000165521
0.000199795
0.000248819
0.000317726
0.000412461
0.000535567
0.000676397
0.000799923
0.000858084
0.000825987
0.000522878
0.00322352
0.0118926
0.0123727
0.0106112
0.00838234
0.00630839
0.0043901
0.00278109
0.00161542
0.000876376
0.000520785
0.000355329
0.000283199
0.000248929
0.000228827
0.000212439
0.00019576
0.000178643
0.000162807
0.0001498
0.000140231
0.000134028
0.000130874
0.00013058
0.000133319
0.000139738
0.000151005
0.000168879
0.000195847
0.00023536
0.000291953
0.000370155
0.000470657
0.000585541
0.000674286
0.000768182
0.000733383
0.000554419
0.00393867
0.00434182
0.00471935
0.00672042
0.00576652
0.00416668
0.00292662
0.00217205
0.00163738
0.00119562
0.000857123
0.000628615
0.000491798
0.000413795
0.000365667
0.000330398
0.000298618
0.00026602
0.000232274
0.000199917
0.000172111
0.000150717
0.000135881
0.000126752
0.000122347
0.000122059
0.000125769
0.000133758
0.000146591
0.000165067
0.000190251
0.000223605
0.000267136
0.000323389
0.000394537
0.000490442
0.000528826
0.000490006
0.000401148
0.000324616
)
;

boundaryField
{
    floor
    {
        Cmu             0.09;
        kappa           0.41;
        E               9.8;
        type            epsilonWallFunction;
        value           nonuniform List<scalar> 
36
(
0.000462354
5.79223e-05
9.55074e-05
0.000151691
0.000186889
0.000183071
0.000148595
0.000115823
9.11926e-05
7.31159e-05
5.96477e-05
4.94409e-05
4.15454e-05
3.53227e-05
3.02653e-05
2.59454e-05
2.19925e-05
1.86532e-05
1.377e-05
1.377e-05
2.21974e-05
3.06491e-05
4.19077e-05
9.22368e-05
0.000121917
0.000159576
0.000462354
0.00102138
0.000623423
0.000333941
5.79223e-05
0.000333941
5.36337e-05
0.00060647
0.000167713
0.000883277
)
;
    }
    ceiling
    {
        Cmu             0.09;
        kappa           0.41;
        E               9.8;
        type            epsilonWallFunction;
        value           nonuniform List<scalar> 
43
(
0.00393867
0.00434182
0.00471935
0.00672042
0.00576652
0.00416668
0.00292662
0.00217205
0.00163738
0.00119562
0.000857123
0.000628615
0.000491798
0.000413795
0.000365667
0.000330398
0.000298618
0.00026602
0.000232274
0.000199917
0.000172111
0.000150717
0.000135881
0.000126752
0.000122347
0.000122059
0.000125769
0.000133758
0.000146591
0.000165067
0.000190251
0.000223605
0.000267136
0.000323389
0.000394537
0.000490442
0.000528826
0.000490006
0.000401148
0.000324616
0.0100662
0.0172041
0.00322352
)
;
    }
    sWall
    {
        Cmu             0.09;
        kappa           0.41;
        E               9.8;
        type            epsilonWallFunction;
        value           uniform 0.00393867;
    }
    nWall
    {
        Cmu             0.09;
        kappa           0.41;
        E               9.8;
        type            epsilonWallFunction;
        value           nonuniform List<scalar> 6(0.000159576 0.000178011 0.0003087 0.000522878 0.000554419 0.000324616);
    }
    sideWalls
    {
        type            empty;
    }
    glass1
    {
        Cmu             0.09;
        kappa           0.41;
        E               9.8;
        type            epsilonWallFunction;
        value           nonuniform List<scalar> 9(0.0005836 0.00131014 0.00224026 0.00346294 0.00510992 0.0074005 0.0100972 0.0107818 0.0100662);
    }
    glass2
    {
        Cmu             0.09;
        kappa           0.41;
        E               9.8;
        type            epsilonWallFunction;
        value           nonuniform List<scalar> 2(0.00112018 0.000932528);
    }
    sun
    {
        Cmu             0.09;
        kappa           0.41;
        E               9.8;
        type            epsilonWallFunction;
        value           nonuniform List<scalar> 
14
(
0.0005836
0.000775487
0.000853344
0.000993902
0.00113951
0.00129509
0.00147269
0.00164923
0.00179356
0.00187047
0.00184365
0.00168717
0.00133771
0.000825312
)
;
    }
    Table_master
    {
        Cmu             0.09;
        kappa           0.41;
        E               9.8;
        type            epsilonWallFunction;
        value           nonuniform List<scalar> 9(0.000373156 0.000239963 0.000157665 0.000107172 7.55241e-05 5.51118e-05 4.15574e-05 3.25001e-05 2.67513e-05);
    }
    Table_slave
    {
        Cmu             0.09;
        kappa           0.41;
        E               9.8;
        type            epsilonWallFunction;
        value           nonuniform List<scalar> 9(0.000562955 0.000419094 0.000330097 0.000268578 0.000222317 0.000185533 0.000153754 0.000124658 9.6539e-05);
    }
    inlet
    {
        type            turbulentMixingLengthDissipationRateInlet;
        mixingLength    0.01;
        phi             phi;
        k               k;
        value           uniform 0.000471672;
    }
    outlet
    {
        type            zeroGradient;
    }
}


// ************************************************************************* //
