/*--------------------------------*- C++ -*----------------------------------*\
  =========                 |
  \\      /  F ield         | OpenFOAM: The Open Source CFD Toolbox
   \\    /   O peration     | Website:  https://openfoam.org
    \\  /    A nd           | Version:  6
     \\/     M anipulation  |
\*---------------------------------------------------------------------------*/
FoamFile
{
    version     2.0;
    format      ascii;
    class       volScalarField;
    location    "180";
    object      T;
}
// * * * * * * * * * * * * * * * * * * * * * * * * * * * * * * * * * * * * * //

dimensions      [0 0 0 1 0 0 0];

internalField   nonuniform List<scalar> 
458
(
302.859
302.593
302.578
302.574
302.569
302.565
302.56
302.553
302.544
302.534
302.529
302.533
302.549
302.573
302.601
302.925
302.889
302.869
302.876
302.889
302.902
302.916
302.929
302.942
302.956
302.97
302.984
302.999
303.013
303.029
303.046
303.068
303.108
303.033
302.629
302.603
302.603
302.604
302.602
302.597
302.584
302.56
302.533
302.514
302.515
302.535
302.559
302.579
302.589
302.602
302.626
302.935
302.846
302.833
302.846
302.865
302.878
302.889
302.901
302.914
302.926
302.939
302.953
302.967
302.982
302.999
303.02
303.048
303.099
303.219
302.677
302.638
302.648
302.66
302.668
302.667
302.647
302.601
302.543
302.505
302.501
302.527
302.557
302.578
302.591
302.601
302.62
302.858
302.808
302.807
302.835
302.87
302.878
302.887
302.898
302.911
302.924
302.938
302.954
302.969
302.985
303.003
303.023
303.049
303.1
303.412
302.738
302.676
302.696
302.727
302.755
302.767
302.738
302.658
302.558
302.494
302.487
302.521
302.563
302.594
302.609
302.617
302.625
302.638
302.67
302.722
302.785
302.852
302.91
302.958
302.993
303.023
303.048
303.072
303.093
303.113
303.131
303.147
303.116
303.087
303.077
303.108
303.603
302.816
302.717
302.737
302.786
302.84
302.875
302.831
302.709
302.565
302.482
302.473
302.517
302.578
302.626
302.651
302.659
302.667
302.691
302.734
302.796
302.868
302.941
303.007
303.064
303.108
303.143
303.172
303.194
303.21
303.22
303.223
303.218
303.191
303.148
303.114
303.119
303.248
303.359
303.353
303.779
302.919
302.783
302.78
302.83
302.907
302.959
302.883
302.722
302.557
302.46
302.456
302.521
302.609
302.681
302.723
302.742
302.759
302.796
302.852
302.921
302.995
303.067
303.129
303.182
303.223
303.255
303.279
303.295
303.304
303.304
303.297
303.282
303.252
303.207
303.161
303.144
303.203
303.249
303.298
303.941
303.085
302.937
302.91
302.939
303.015
303.017
302.886
302.68
302.497
302.409
302.436
302.541
302.669
302.772
302.835
302.87
302.898
302.945
303.008
303.075
303.144
303.206
303.258
303.3
303.333
303.357
303.374
303.383
303.383
303.375
303.361
303.339
303.307
303.266
303.22
303.193
303.207
303.229
303.265
304.171
303.532
303.362
303.263
303.225
303.207
303.057
302.796
302.528
302.354
302.325
302.429
302.602
302.783
302.914
302.993
303.031
303.065
303.115
303.177
303.236
303.292
303.339
303.376
303.404
303.425
303.438
303.446
303.446
303.441
303.43
303.412
303.39
303.36
303.326
303.291
303.271
303.279
303.3
303.428
304.5
304.197
303.964
303.751
303.571
303.274
302.813
302.39
302.141
302.104
302.244
302.5
302.759
302.989
303.106
303.162
303.197
303.234
303.281
303.333
303.38
303.418
303.448
303.47
303.485
303.493
303.495
303.492
303.485
303.475
303.464
303.454
303.445
303.441
303.445
303.46
303.489
303.521
303.546
303.607
297.247
298.519
299.227
299.635
300.151
300.744
301.344
301.896
302.389
302.857
303.091
303.216
303.278
303.316
303.349
303.384
303.423
303.46
303.491
303.515
303.53
303.538
303.541
303.539
303.534
303.527
303.519
303.512
303.504
303.497
303.494
303.494
303.502
303.517
303.543
303.576
303.615
303.666
297.676
298.819
299.817
300.675
301.386
301.933
302.397
302.769
303.044
303.227
303.326
303.383
303.42
303.45
303.477
303.504
303.53
303.553
303.569
303.578
303.582
303.582
303.578
303.573
303.566
303.559
303.552
303.545
303.538
303.532
303.528
303.527
303.53
303.54
303.556
303.583
303.602
303.647
299.691
299.651
299.647
300.872
301.746
302.398
302.815
303.06
303.22
303.336
303.417
303.472
303.509
303.534
303.554
303.57
303.584
303.596
303.606
303.612
303.615
303.614
303.612
303.608
303.603
303.597
303.591
303.585
303.579
303.573
303.567
303.561
303.556
303.553
303.551
303.555
303.565
303.577
303.589
303.641
)
;

boundaryField
{
    floor
    {
        type            wallHeatTransfer;
        Tinf            uniform 305.2;
        alphaWall       uniform 0.24;
        value           nonuniform List<scalar> 
36
(
302.872
303.316
303.243
303.19
303.18
303.193
303.22
303.251
303.281
303.311
303.34
303.368
303.395
303.422
303.448
303.475
303.505
303.537
303.598
303.598
303.545
303.516
303.496
303.55
303.626
303.604
302.872
302.812
302.853
302.918
303.316
302.918
303.331
302.871
303.172
302.865
)
;
    }
    ceiling
    {
        type            wallHeatTransfer;
        Tinf            uniform 303.2;
        alphaWall       uniform 0.24;
        value           nonuniform List<scalar> 
43
(
299.898
299.855
299.847
300.991
301.824
302.445
302.84
303.07
303.219
303.325
303.398
303.446
303.477
303.498
303.514
303.528
303.539
303.549
303.555
303.559
303.559
303.557
303.554
303.549
303.544
303.54
303.535
303.53
303.526
303.522
303.519
303.516
303.514
303.512
303.513
303.518
303.528
303.538
303.547
303.591
304.44
304.157
298.018
)
;
    }
    sWall
    {
        type            wallHeatTransfer;
        Tinf            uniform 315.2;
        alphaWall       uniform 0.36;
        value           uniform 301.028;
    }
    nWall
    {
        type            wallHeatTransfer;
        Tinf            uniform 307.2;
        alphaWall       uniform 0.36;
        value           nonuniform List<scalar> 6(304.089 304.026 303.911 304.179 304.155 304.219);
    }
    sideWalls
    {
        type            empty;
    }
    glass1
    {
        type            wallHeatTransfer;
        Tinf            uniform 315.2;
        alphaWall       uniform 4.3;
        value           nonuniform List<scalar> 9(311.088 310.499 310.124 309.84 309.601 309.378 309.205 309.275 309.508);
    }
    glass2
    {
        type            wallHeatTransfer;
        Tinf            uniform 307.2;
        alphaWall       uniform 4.3;
        value           nonuniform List<scalar> 2(305.771 305.883);
    }
    sun
    {
        type            wallHeatTransfer;
        Tinf            uniform 305.2;
        alphaWall       uniform 0.24;
        value           nonuniform List<scalar> 
14
(
303.089
302.832
302.813
302.799
302.787
302.776
302.764
302.752
302.739
302.728
302.724
302.732
302.76
302.81
)
;
    }
    Table_master
    {
        type            zeroGradient;
    }
    Table_slave
    {
        type            zeroGradient;
    }
    inlet
    {
        type            fixedValue;
        value           uniform 295.15;
    }
    outlet
    {
        type            zeroGradient;
    }
}


// ************************************************************************* //
