/*--------------------------------*- C++ -*----------------------------------*\
  =========                 |
  \\      /  F ield         | OpenFOAM: The Open Source CFD Toolbox
   \\    /   O peration     | Website:  https://openfoam.org
    \\  /    A nd           | Version:  6
     \\/     M anipulation  |
\*---------------------------------------------------------------------------*/
FoamFile
{
    version     2.0;
    format      ascii;
    class       volScalarField;
    location    "43099.999999793501";
    object      k;
}
// * * * * * * * * * * * * * * * * * * * * * * * * * * * * * * * * * * * * * //

dimensions      [0 2 -2 0 0 0 0];

internalField   nonuniform List<scalar> 
778
(
0.001586
0.00180129
0.00178821
0.0019468
0.00209804
0.00224027
0.00237685
0.00251231
0.00265245
0.00280555
0.00295548
0.00310149
0.00324876
0.00341099
0.00358454
0.000792485
0.00162541
0.00165148
0.00157227
0.00144434
0.00128206
0.00113009
0.00099863
0.000887065
0.000792612
0.000712894
0.000644881
0.000585887
0.00053338
0.000484651
0.000436199
0.00039792
0.000326072
0.00340711
0.00643395
0.00268776
0.00274633
0.00288804
0.0030546
0.00323487
0.00343048
0.00364344
0.0038734
0.00412504
0.00437836
0.00459379
0.0046989
0.00459332
0.00429688
0.00390583
0.00357902
0.0025384
0.00281367
0.00295536
0.00289696
0.00266349
0.00226409
0.00190476
0.00160864
0.0013691
0.00117547
0.00101682
0.000885123
0.000773913
0.000681125
0.00061514
0.000574655
0.000864693
0.000524204
0.00549103
0.0127826
0.00347832
0.00321231
0.00329764
0.00345545
0.00363675
0.00384074
0.00407077
0.00432698
0.00463462
0.00500955
0.00544941
0.00595893
0.00653046
0.00685984
0.00627764
0.00538581
0.0040377
0.00416988
0.00417335
0.00397559
0.00357758
0.0026656
0.00201519
0.00157541
0.00126907
0.00104901
0.000886725
0.000764483
0.000671746
0.000603597
0.000551418
0.000548687
0.00116645
0.000678628
0.00797399
0.0217615
0.00449185
0.00339089
0.00334162
0.00343814
0.00354942
0.00366873
0.00380871
0.00399067
0.00425814
0.00464714
0.00516967
0.00582378
0.0065539
0.0071347
0.00722876
0.00724644
0.00534119
0.00554652
0.00537438
0.00512487
0.00478664
0.00434807
0.00345601
0.00285917
0.00243591
0.00210957
0.00185002
0.00163151
0.00143814
0.0012582
0.00107735
0.000800511
0.000659664
0.00142374
0.000822922
0.0108771
0.0336398
0.00621417
0.00342516
0.00315834
0.00316695
0.00318948
0.00320965
0.00325174
0.00336047
0.00359383
0.00398797
0.00455199
0.00527534
0.00608582
0.00681687
0.00728191
0.00764146
0.00751246
0.00665055
0.00607081
0.00557765
0.00509848
0.00462927
0.00412325
0.00366565
0.00327477
0.00293693
0.00263051
0.00234695
0.00207839
0.00181776
0.00155444
0.00122163
0.000929959
0.00119144
0.00121702
0.00117105
0.00206459
0.0018915
0.0141758
0.0476057
0.00928661
0.00349028
0.0029086
0.0028227
0.00276426
0.0026993
0.00266387
0.00273412
0.00298024
0.00341352
0.00402266
0.00479706
0.00565286
0.00646041
0.00706663
0.0074038
0.00731922
0.00678613
0.00621241
0.00563565
0.00507363
0.00455583
0.00409138
0.00369572
0.00336299
0.00307345
0.00280631
0.00255083
0.0022982
0.00204155
0.00177351
0.0014712
0.00117774
0.0011125
0.00111207
0.001722
0.00513965
0.0027007
0.0179935
0.0606127
0.0143648
0.0038201
0.0027153
0.00252935
0.00241164
0.00229375
0.00222069
0.00231128
0.00263014
0.00313929
0.00380222
0.00463225
0.00552933
0.00636704
0.00699999
0.00732576
0.00725129
0.00681525
0.00621349
0.00555386
0.00491155
0.00434273
0.00387257
0.00350054
0.00320676
0.00296179
0.00274114
0.00252858
0.00231277
0.00208656
0.00184497
0.00158278
0.00132619
0.00115883
0.00109285
0.00157225
0.00638173
0.00376386
0.0216428
0.0704861
0.021443
0.00510365
0.00274298
0.00237178
0.00220995
0.00208158
0.00202587
0.00221914
0.00264975
0.00323153
0.00393881
0.00477743
0.00570282
0.00657693
0.00722541
0.00751375
0.00738298
0.00689502
0.00619781
0.00542728
0.00469214
0.00406503
0.00357487
0.00321286
0.002948
0.00274138
0.00256437
0.00239557
0.00222142
0.00203458
0.00183153
0.00161238
0.00139478
0.0012265
0.0011581
0.00217266
0.0140759
0.00651131
0.0228338
0.0694877
0.0325419
0.0110624
0.00406856
0.00258741
0.0022352
0.00210252
0.00218936
0.00251173
0.00300016
0.00360292
0.00433558
0.00521844
0.00619274
0.00709477
0.0077219
0.00792492
0.00766492
0.00702607
0.00616692
0.00525098
0.00440999
0.00372435
0.00321804
0.00287002
0.00263661
0.00247016
0.00233706
0.00221153
0.00207885
0.00193206
0.00176876
0.00159067
0.00141067
0.00127843
0.00136481
0.0043724
0.0281963
0.00854522
0.0219173
0.0516247
0.0336451
0.0174383
0.00858952
0.00475906
0.00326031
0.00272898
0.00285191
0.00320955
0.00367163
0.00424759
0.00500028
0.00594776
0.0069863
0.00789874
0.00844895
0.00848696
0.00800489
0.00712604
0.00604565
0.00495964
0.0040168
0.00329484
0.0028009
0.00249111
0.00230452
0.00218658
0.00209825
0.00201282
0.00191689
0.00180488
0.0016755
0.00153114
0.00138335
0.00129193
0.00178675
0.011313
0.0233212
0.00873348
0.0192305
0.0394278
0.0302363
0.0195678
0.0121833
0.0079385
0.00571602
0.00466745
0.00435988
0.00439723
0.00465093
0.00514689
0.00594237
0.0069945
0.00810509
0.00897843
0.0093513
0.0090992
0.00827463
0.00706461
0.00571945
0.00446953
0.0034703
0.00277508
0.00235306
0.00211912
0.00199492
0.00192733
0.00187734
0.00182331
0.00175538
0.0016697
0.00156615
0.00144853
0.00133129
0.00129679
0.00218723
0.0109621
0.0218635
0.0087113
0.0159457
0.0315822
0.0266496
0.0195394
0.0139763
0.0102837
0.00802616
0.00674969
0.00604636
0.00572804
0.0057814
0.00627777
0.00722079
0.00843619
0.00958663
0.0102973
0.0103161
0.00959312
0.00828649
0.00667114
0.00506746
0.00373333
0.00280145
0.00224097
0.00196049
0.00182066
0.00175192
0.00171815
0.0016906
0.0016552
0.00160519
0.00153747
0.00145381
0.0013613
0.00127978
0.00131296
0.0022982
0.00943087
0.0208574
0.00938403
0.0132644
0.0256786
0.0233557
0.0186926
0.0145851
0.0115888
0.00954345
0.00820861
0.0072982
0.00683834
0.0069591
0.0077277
0.00899595
0.0103876
0.0114248
0.0117129
0.0111015
0.00968573
0.00778537
0.00576885
0.00404152
0.00284421
0.00219921
0.00186628
0.00170377
0.0016242
0.00158436
0.00156263
0.00154083
0.00151029
0.00146696
0.0014104
0.00134471
0.0012817
0.00126461
0.0015052
0.00285235
0.00938772
0.0183002
0.0102867
0.0133559
0.0224277
0.0220672
0.0177654
0.0143959
0.0118963
0.0100853
0.00876901
0.00791736
0.00777427
0.00847832
0.00988366
0.0115496
0.0128943
0.013411
0.0128315
0.0112515
0.00896167
0.00651655
0.00430888
0.00296005
0.00221781
0.00184834
0.00166563
0.00157247
0.00152083
0.00148776
0.00146165
0.0014327
0.00139582
0.00134937
0.00129675
0.00125262
0.00126766
0.00150794
0.00232567
0.00435296
0.0100267
0.0185401
0.00993783
0.0108794
0.0117685
0.0129257
0.0125537
0.011375
0.0100749
0.00894659
0.00820228
0.00830076
0.009417
0.0113029
0.0133833
0.0149767
0.0155392
0.0148171
0.0128327
0.0100961
0.00698979
0.00461218
0.00310879
0.00231867
0.00193196
0.00174005
0.00163446
0.00156775
0.00151844
0.00147578
0.00143409
0.00139042
0.00134345
0.00129438
0.00125483
0.00126417
0.00143844
0.00204687
0.00349693
0.00626861
0.0108811
0.0163917
0.00875562
0.00354071
0.00481832
0.00598779
0.00659276
0.00727149
0.00878509
0.0113027
0.0141414
0.0165711
0.0180123
0.0180906
0.0167285
0.0141583
0.0105351
0.00723498
0.00475819
0.00326352
0.00250071
0.00214586
0.00197069
0.00186757
0.00179359
0.00173263
0.00167826
0.00162784
0.00158054
0.0015363
0.00150313
0.00148159
0.00148431
0.00155639
0.00181858
0.00252964
0.00410333
0.00698729
0.0113437
0.0159233
0.00802713
0.00444653
0.00627962
0.00809234
0.0109999
0.0146712
0.0181321
0.0203784
0.0214543
0.0213893
0.0201618
0.017593
0.014066
0.0103593
0.00704951
0.00472856
0.00340855
0.00278819
0.00252161
0.00239868
0.00232797
0.00227704
0.00223614
0.00220447
0.00218482
0.00218018
0.00219071
0.00221137
0.00223056
0.00225417
0.00230182
0.00240372
0.00265806
0.00326103
0.00456468
0.0070911
0.011442
0.0177773
0.00904974
0.0150785
0.0245549
0.0181337
0.0143797
0.0169714
0.0206558
0.022777
0.0234792
0.0230367
0.0216961
0.0196834
0.0170062
0.0137704
0.0103587
0.00734709
0.00521729
0.00405955
0.00356083
0.00337837
0.00331391
0.00328312
0.00325414
0.00321886
0.00318155
0.00315276
0.00314431
0.00316573
0.00322286
0.00331785
0.00344836
0.00360387
0.0037763
0.00401878
0.00442769
0.00512018
0.0063654
0.00875844
0.0144591
0.0179847
0.0103357
0.0138074
0.0170636
0.0178205
0.0207298
0.0216567
0.0220728
0.0210785
0.0192719
0.0171617
0.0149937
0.0128601
0.0107903
0.00880597
0.00702936
0.00563583
0.00476448
0.00433256
0.00416991
0.00414771
0.00419061
0.00425459
0.00431471
0.00436097
0.00439575
0.00443022
0.00448024
0.00456351
0.00469919
0.00490942
0.00522021
0.00565834
0.00624116
0.00695269
0.00778586
0.00882833
0.010321
0.0126688
0.0173457
0.0200462
0.0111186
0.0121336
0.00891521
0.00883054
0.00936034
0.00981498
0.00926224
0.00821353
0.00706064
0.00598042
0.00501792
0.0041716
0.00344614
0.00287188
0.00248544
0.00228614
0.00221188
0.00221197
0.00224957
0.00230378
0.00236362
0.00242363
0.00248216
0.00254072
0.00260367
0.00267791
0.00277298
0.00290153
0.00307961
0.00332533
0.00365433
0.00407351
0.0045781
0.00515764
0.00581191
0.00655696
0.00737491
0.008267
0.00927152
0.0103554
0.00942157
)
;

boundaryField
{
    floor
    {
        type            kqRWallFunction;
        value           nonuniform List<scalar> 
36
(
0.00358454
0.000792485
0.00162541
0.00165148
0.00157227
0.00144434
0.00128206
0.00113009
0.00099863
0.000887065
0.000792612
0.000712894
0.000644881
0.000585887
0.00053338
0.000484651
0.000436199
0.00039792
0.000326072
0.000326072
0.000524204
0.000678628
0.000822922
0.00117105
0.00206459
0.0018915
0.00358454
0.00429688
0.00390583
0.00357902
0.000792485
0.00357902
0.0025384
0.00538581
0.0040377
0.00534119
)
;
    }
    ceiling
    {
        type            kqRWallFunction;
        value           nonuniform List<scalar> 
43
(
0.0121336
0.00891521
0.00883054
0.00936034
0.00981498
0.00926224
0.00821353
0.00706064
0.00598042
0.00501792
0.0041716
0.00344614
0.00287188
0.00248544
0.00228614
0.00221188
0.00221197
0.00224957
0.00230378
0.00236362
0.00242363
0.00248216
0.00254072
0.00260367
0.00267791
0.00277298
0.00290153
0.00307961
0.00332533
0.00365433
0.00407351
0.0045781
0.00515764
0.00581191
0.00655696
0.00737491
0.008267
0.00927152
0.0103554
0.00942157
0.0108794
0.0117685
0.00444653
)
;
    }
    sWall
    {
        type            kqRWallFunction;
        value           nonuniform List<scalar> 9(0.0219173 0.0192305 0.0159457 0.0132644 0.0133559 0.0108794 0.0150785 0.0138074 0.0121336);
    }
    nWall
    {
        type            kqRWallFunction;
        value           nonuniform List<scalar> 
14
(
0.0018915
0.0027007
0.00376386
0.00873348
0.0087113
0.00938403
0.0102867
0.00993783
0.00875562
0.00802713
0.00904974
0.0103357
0.0111186
0.00942157
)
;
    }
    sideWalls
    {
        type            empty;
    }
    glass1
    {
        type            kqRWallFunction;
        value           nonuniform List<scalar> 9(0.001586 0.00340711 0.00549103 0.00797399 0.0108771 0.0141758 0.0179935 0.0216428 0.0228338);
    }
    glass2
    {
        type            kqRWallFunction;
        value           nonuniform List<scalar> 2(0.00651131 0.00854522);
    }
    sun
    {
        type            kqRWallFunction;
        value           nonuniform List<scalar> 
14
(
0.001586
0.00180129
0.00178821
0.0019468
0.00209804
0.00224027
0.00237685
0.00251231
0.00265245
0.00280555
0.00295548
0.00310149
0.00324876
0.00341099
)
;
    }
    Table_master
    {
        type            kqRWallFunction;
        value           nonuniform List<scalar> 9(0.0026656 0.00201519 0.00157541 0.00126907 0.00104901 0.000886725 0.000764483 0.000671746 0.000603597);
    }
    Table_slave
    {
        type            kqRWallFunction;
        value           nonuniform List<scalar> 9(0.00345601 0.00285917 0.00243591 0.00210957 0.00185002 0.00163151 0.00143814 0.0012582 0.00107735);
    }
    inlet
    {
        type            turbulentIntensityKineticEnergyInlet;
        intensity       0.05;
        value           uniform 0.0009375;
    }
    outlet
    {
        type            zeroGradient;
    }
}


// ************************************************************************* //
