/*--------------------------------*- C++ -*----------------------------------*\
  =========                 |
  \\      /  F ield         | OpenFOAM: The Open Source CFD Toolbox
   \\    /   O peration     | Website:  https://openfoam.org
    \\  /    A nd           | Version:  6
     \\/     M anipulation  |
\*---------------------------------------------------------------------------*/
FoamFile
{
    version     2.0;
    format      ascii;
    class       surfaceScalarField;
    location    "43099.999999793501";
    object      phi;
}
// * * * * * * * * * * * * * * * * * * * * * * * * * * * * * * * * * * * * * //

dimensions      [1 0 -1 0 0 0 0];

internalField   nonuniform List<scalar> 
1482
(
-0.00279973
0.00286376
-0.00348386
0.000684127
-0.00414444
0.000660581
-0.00475837
0.000613929
-0.00527953
0.000521164
-0.00569119
0.000411655
-0.00598212
0.000290935
-0.00613931
0.000157184
-0.00614544
6.13533e-06
-0.00597457
-0.000170866
-0.00559678
-0.000377789
-0.00498105
-0.000615736
-0.00405718
-0.000923873
-0.00257896
-0.00147821
-0.00257604
-6.31736e-05
6.80287e-05
0.000781796
-0.00084497
0.0014353
-0.0006535
0.00183556
-0.000400265
0.00205786
-0.000222302
0.00216249
-0.000104631
0.0022099
-4.74086e-05
0.00223285
-2.2947e-05
0.00224276
-9.9056e-06
0.00224375
-9.90768e-07
0.00223669
7.05115e-06
0.00221762
1.90706e-05
0.00217323
4.43893e-05
0.00207029
0.000102944
0.00185328
0.000217015
0.00149514
0.000358135
0.00102266
0.000472484
0.0010291
-0.00204032
0.0050744
-0.00290834
0.00155215
-0.00369407
0.00144631
-0.00434495
0.00126481
-0.00488199
0.00105821
-0.00531048
0.000840145
-0.00562865
0.000609104
-0.00582973
0.000358259
-0.00590307
7.94783e-05
-0.00584088
-0.00023305
-0.00563737
-0.000581301
-0.0052812
-0.000971903
-0.00477119
-0.00143388
-0.00428532
-0.00196409
-0.00470099
-0.00216036
-0.00311557
-0.00157998
-0.00163345
-0.00147643
-0.0016186
0.00131854
-0.0012403
0.0016637
-0.00119014
0.00191629
-0.000906086
0.00210831
-0.000592288
0.00221639
-0.00033038
0.0022254
-0.000113641
0.0022273
-4.93077e-05
0.00222887
-2.45206e-05
0.00222983
-1.0867e-05
0.00222987
-1.02602e-06
0.00222853
8.38725e-06
0.00222434
2.32634e-05
0.00221168
5.70449e-05
0.00214967
0.00016496
0.0018997
0.000466979
0.00146955
0.000788294
0.000904905
0.00103712
0.00195088
-0.00148818
0.0068205
-0.00235895
0.00242292
-0.0031288
0.00221615
-0.00371286
0.00184887
-0.00418332
0.00152866
-0.0045545
0.00121133
-0.00482823
0.000882836
-0.0050013
0.000531325
-0.00506732
0.000145506
-0.00501726
-0.000283109
-0.00484038
-0.000758184
-0.00452922
-0.00128306
-0.00411455
-0.00184855
-0.003717
-0.00236164
-0.00329657
-0.0025808
-0.00236551
-0.00251103
-0.00127227
-0.00256967
-0.00287804
0.00115134
-0.00237719
0.00165529
-0.00169408
0.00195414
-0.00120494
0.00214765
-0.000785795
0.0021792
-0.000361938
0.00206572
0.00201656
0.0019922
0.00198148
0.00198061
0.00198915
0.00201257
0.00206977
0.00223488
0.00187634
0.000825528
0.00142775
0.00123687
0.000807157
0.00165772
0.00278407
-0.00110598
0.00825769
-0.00192776
0.0032447
-0.00256962
0.00285802
-0.00302979
0.00230903
-0.00339712
0.001896
-0.00368568
0.00149988
-0.00389845
0.00109561
-0.0040336
0.000666483
-0.00408365
0.000195551
-0.00403541
-0.000331346
-0.00387661
-0.000916988
-0.00360307
-0.0015566
-0.00323733
-0.00221429
-0.00281517
-0.0027838
-0.00227557
-0.0031204
-0.0015558
-0.0032308
-0.000867443
-0.00325802
-0.000686665
-0.00305882
0.00144962
-0.00212083
0.00137954
-0.00230711
0.00169429
-0.00200883
0.00200646
-0.00151711
0.00227245
-0.00105179
0.0025477
-0.000637189
0.00286304
-0.000315492
0.00303137
-0.000168485
0.00309738
-6.61565e-05
0.00308158
1.56405e-05
0.00299272
8.87059e-05
0.00283168
0.000160893
0.00259048
0.000241042
0.00224607
0.000344257
0.00174103
0.000504887
0.0016041
0.000962451
0.00127609
0.00156488
0.000748602
0.00218521
0.00356696
-0.000803688
0.00945456
-0.0015797
0.00402071
-0.00204813
0.00332645
-0.00236364
0.00262455
-0.00260782
0.00214017
-0.00279316
0.00168522
-0.00292466
0.00122711
-0.00300304
0.000744869
-0.00302176
0.000214266
-0.00296419
-0.000388913
-0.00281707
-0.00106411
-0.00257336
-0.00180031
-0.00223957
-0.00254809
-0.00182281
-0.00320056
-0.00131721
-0.00362601
-0.000740439
-0.00380757
-0.000208942
-0.00378952
0.000268336
-0.00353609
0.00112888
-0.00298138
0.00149377
-0.00267199
0.0017516
-0.00226667
0.00200336
-0.00176886
0.00223285
-0.00128128
0.00244708
-0.000851418
0.00264907
-0.000517478
0.00276054
-0.000279955
0.00279837
-0.000103988
0.00277417
3.98411e-05
0.00269419
0.000168681
0.0025608
0.000294289
0.00237268
0.000429155
0.00212745
0.000589487
0.00183333
0.000799014
0.00162784
0.00116794
0.00148754
0.00170519
0.00131099
0.00236176
0.00230609
0.00257185
0.00134556
0.000995424
0.00190551
-0.000531404
0.00202386
-0.000575791
0.0104767
-0.00132457
0.0047695
-0.0015839
0.00358577
-0.00174958
0.00279023
-0.00186338
0.00225397
-0.00193473
0.00175657
-0.00197008
0.00126246
-0.00197372
0.000748512
-0.00194244
0.000182979
-0.00185448
-0.000476873
-0.00169997
-0.00121862
-0.00146882
-0.00203145
-0.00116392
-0.00285299
-0.000791139
-0.00357334
-0.000370921
-0.00404623
6.96914e-05
-0.00424819
0.000475024
-0.00419486
0.000849296
-0.00391037
0.00129962
-0.00343171
0.00159745
-0.00296982
0.00179967
-0.00246889
0.00197037
-0.00193955
0.00212172
-0.00143264
0.00225645
-0.000986147
0.00236224
-0.000623262
0.00242192
-0.000339634
0.00243486
-0.000116929
0.00240607
6.86274e-05
0.00234016
0.000234598
0.00224071
0.000393736
0.00211161
0.000558255
0.00195983
0.000741263
0.00180002
0.000958832
0.001709
0.00125896
0.00176732
0.00164686
0.00198279
0.00214629
0.00223427
0.00232037
0.00175527
0.00147443
0.000824592
0.000399268
0.00294559
-0.000543501
0.0115124
-0.00124358
0.00546957
-0.0011915
0.00353369
-0.00119954
0.00279828
-0.00119169
0.00224612
-0.0011581
0.00172298
-0.00110094
0.0012053
-0.00102594
0.000673514
-0.00092755
8.45913e-05
-0.000778716
-0.000625707
-0.000589455
-0.00140788
-0.000349066
-0.00227184
-6.4677e-05
-0.00313738
0.0002408
-0.00387882
0.000551355
-0.00435679
0.000846914
-0.00454375
0.00111005
-0.004458
0.00134319
-0.00414351
0.00157424
-0.00366277
0.00173287
-0.00312845
0.00183167
-0.00256769
0.00190086
-0.00200875
0.00195634
-0.00148811
0.00200336
-0.00103317
0.00203671
-0.000656614
0.00205056
-0.000353483
0.00204126
-0.000107628
0.00200929
0.000100599
0.00195742
0.000286467
0.00188909
0.000462063
0.00180916
0.000638188
0.00172586
0.00082456
0.00165419
0.0010305
0.00163802
0.00127513
0.00172413
0.00156075
0.00193803
0.0019324
0.00220459
0.0020538
0.00223567
0.00144335
0.00164037
0.000994561
0.00468829
-0.000483764
0.0125317
-0.00105151
0.00603732
-0.000697035
0.00317921
-0.000635825
0.00273707
-0.000567203
0.0021775
-0.000462366
0.00161814
-0.000333284
0.00107622
-0.000182087
0.000522317
7.05364e-06
-0.00010455
0.000225058
-0.000843711
0.000464867
-0.00164769
0.00072298
-0.00252995
0.000980596
-0.00339499
0.00120993
-0.00410816
0.00141006
-0.00455693
0.00157186
-0.00470555
0.00168994
-0.00457609
0.00176897
-0.00422254
0.00182137
-0.00371517
0.00183046
-0.00313754
0.00180468
-0.00254191
0.00176327
-0.00196734
0.00172135
-0.00144619
0.00168655
-0.000998366
0.00165896
-0.000629021
0.00163462
-0.000329144
0.00160853
-8.154e-05
0.00157817
0.000130963
0.00154336
0.000321273
0.00150498
0.000500443
0.00146561
0.000677558
0.00143078
0.000859394
0.00141074
0.00105054
0.00142887
0.001257
0.00151545
0.00147417
0.00172795
0.0017199
0.00204334
0.00173841
0.00222336
0.00126333
0.00175829
0.00145962
0.00681182
0.00297928
0.0101396
0.00202381
0.00699279
0.000870141
0.00433288
0.00037167
0.00323554
0.00021489
0.00233428
0.000271428
0.00156161
0.000425397
0.00092225
0.000639242
0.000308471
0.000898427
-0.000363735
0.0011633
-0.00110858
0.00144198
-0.00192637
0.00170946
-0.00279743
0.00193628
-0.00362181
0.002098
-0.00426987
0.00218862
-0.00464755
0.00221065
-0.00472759
0.00217281
-0.00453825
0.00208871
-0.00413844
0.00197358
-0.00360005
0.00183315
-0.00299712
0.00167978
-0.00238855
0.00153058
-0.00181814
0.00140046
-0.00131607
0.0012979
-0.000895808
0.00122437
-0.000555497
0.00117516
-0.000279933
0.00114289
-4.92704e-05
0.00112194
0.000151921
0.00110832
0.000334889
0.00109925
0.000509517
0.0010939
0.000682902
0.00109367
0.00085962
0.00110239
0.00104182
0.00112961
0.00122979
0.00119114
0.00141264
0.00134167
0.00156936
0.00163985
0.00144024
0.00175516
0.00114804
0.000439677
0.00277506
0.00763371
0.00403335
0.00624646
0.00366987
0.00735627
0.00254394
0.00545882
0.00189031
0.00388916
0.00153369
0.00269091
0.00138889
0.00170641
0.00142275
0.000888395
0.00159718
0.000134042
0.00184922
-0.000615776
0.00212639
-0.00138576
0.00240633
-0.00220631
0.00265178
-0.00304288
0.002821
-0.00379103
0.00288685
-0.00433571
0.00284597
-0.00460667
0.0027121
-0.00459372
0.00250748
-0.00433362
0.00225634
-0.0038873
0.00198145
-0.00332516
0.00169996
-0.00271563
0.00142924
-0.00211783
0.00118737
-0.00157628
0.000989461
-0.00111816
0.000842363
-0.000748709
0.000745432
-0.000458566
0.000690012
-0.000224513
0.000665074
-2.43319e-05
0.00066137
0.000155625
0.000671406
0.000324854
0.000689757
0.000491166
0.000713083
0.000659576
0.00073872
0.000833984
0.000762764
0.00101777
0.000777049
0.0012155
0.00075664
0.00143305
0.000623673
0.00170233
-1.74611e-05
0.00208141
-0.00196975
0.00310055
-0.00338092
0.00418622
0.00435585
0.00241027
0.00400071
0.00330573
0.00646082
0.00324954
0.005515
0.00303864
0.00410008
0.0028477
0.00288184
0.0027246
0.00182951
0.00271084
0.000902153
0.00279992
4.49683e-05
0.00296191
-0.000777762
0.0031726
-0.00159645
0.00339032
-0.00242403
0.00355509
-0.00320764
0.00361203
-0.00384795
0.00353435
-0.00425803
0.00332744
-0.00439975
0.00301742
-0.00428369
0.00263863
-0.00395482
0.00222439
-0.00347307
0.00180423
-0.00290501
0.00140162
-0.00231302
0.00103826
-0.00175447
0.000733928
-0.00127194
0.000503179
-0.000887409
0.000345785
-0.000591315
0.000253792
-0.000366573
0.000211049
-0.00018177
0.000203177
-1.64595e-05
0.000219079
0.000139724
0.000250513
0.00029342
0.000292097
0.000449582
0.00034011
0.000611564
0.000390153
0.000783941
0.000435202
0.000972724
0.000460365
0.00119034
0.000428533
0.00146488
0.000262087
0.00186877
-0.000242884
0.00258652
-0.00128575
0.00414391
-0.00177409
0.00467484
0.0026963
0.00145623
0.00273875
0.00274741
0.00516965
0.00343163
0.00483079
0.00371814
0.00381357
0.00381717
0.00278281
0.00384584
0.00180085
0.00388246
0.000865535
0.00395188
-2.44498e-05
0.00406182
-0.000887702
0.00420179
-0.00173641
0.00432065
-0.00254289
0.00434775
-0.00323473
0.00423138
-0.00373158
0.0039593
-0.00398592
0.00355396
-0.0039944
0.00305518
-0.00378491
0.00250675
-0.00340639
0.00194721
-0.00291353
0.00141048
-0.00236828
0.000922732
-0.00182527
0.000511019
-0.00134276
0.000194138
-0.000955063
-2.05691e-05
-0.000672703
-0.000147808
-0.000464076
-0.000211477
-0.000302906
-0.000232705
-0.000160542
-0.000224177
-2.49877e-05
-0.000194155
0.000109702
-0.000148227
0.000247492
-9.00623e-05
0.000391418
-2.23119e-05
0.000543814
5.21375e-05
0.000709492
0.000128843
0.000896019
0.000199789
0.00111939
0.000242789
0.00142187
0.000204513
0.00190701
0.000112244
0.00267874
0.000216343
0.00404013
0.000241482
0.00464999
0.00306057
0.00216733
0.000797395
0.00293842
0.00439856
0.00359052
0.00417869
0.00416227
0.00324182
0.00449129
0.00245379
0.0046667
0.00162544
0.00478428
0.000747952
0.00488919
-0.000129354
0.00499515
-0.000993668
0.00507269
-0.00181396
0.00505664
-0.00252684
0.00488691
-0.003065
0.00454097
-0.00338562
0.00403774
-0.00348269
0.00342227
-0.00337891
0.00274537
-0.00310799
0.00205533
-0.00271634
0.00138975
-0.00224795
0.000786982
-0.00176551
0.000271988
-0.00131028
-0.000117319
-0.000953455
-0.000374862
-0.000697521
-0.000525985
-0.000521582
-0.00060603
-0.000384034
-0.000642343
-0.000266594
-0.00064731
-0.000155576
-0.000628013
-4.42844e-05
-0.000589272
7.09612e-05
-0.000534397
0.000192618
-0.000466046
0.000323068
-0.000386603
0.000464372
-0.000297269
0.000620159
-0.000198162
0.000796914
-8.9663e-05
0.00101089
1.00596e-05
0.00132212
6.6562e-05
0.00185037
0.000209694
0.00253531
0.000838574
0.00341114
0.00127393
0.00421461
0.00446337
-0.00157972
0.00262221
0.00111537
0.00170348
0.00334789
0.00194616
0.00435162
0.00223809
0.00485703
0.00194838
0.00517302
0.00130945
0.00540178
0.000519185
0.00557916
-0.000306745
0.00567724
-0.00109176
0.00563468
-0.00177142
0.00540095
-0.00229311
0.00496437
-0.00262842
0.00435296
-0.0027742
0.00361991
-0.00274962
0.00282553
-0.00258452
0.00201984
-0.0023023
0.00125046
-0.00194696
0.000547464
-0.00154495
-4.33353e-05
-0.00117471
-0.000479609
-0.000874004
-0.000757137
-0.000675928
-0.00092063
-0.000534034
-0.0010154
-0.000426817
-0.00106464
-0.000334802
-0.00108239
-0.000248845
-0.00107502
-0.000162944
-0.00104635
-7.29564e-05
-0.000999915
2.45277e-05
-0.000938553
0.000131257
-0.000864957
0.000249473
-0.000783074
0.00038249
-0.000697005
0.000534092
-0.00061212
0.000712035
-0.000539836
0.000938611
-0.000502972
0.00128521
-0.000488739
0.0018359
-0.000327918
0.00237394
0.000474766
0.00260784
0.000993619
0.00369519
0.0055967
0.00288391
0.0045722
0.00487133
0.00164703
0.00535832
0.0017511
0.00559602
0.00171068
0.00582817
0.00107729
0.00601479
0.000332551
0.00607915
-0.000371138
0.00595092
-0.000963578
0.00559728
-0.00141782
0.00503115
-0.00172699
0.00429977
-0.00189703
0.00346196
-0.00193637
0.00257706
-0.00186471
0.00170017
-0.00170762
0.000864373
-0.00146649
0.000110296
-0.00119288
-0.000505655
-0.000928996
-0.000943812
-0.000736551
-0.00122011
-0.000597712
-0.00139268
-0.000503367
-0.00149742
-0.000429305
-0.00155981
-0.000364445
-0.00159141
-0.000303214
-0.00159749
-0.000242769
-0.00158032
-0.000180114
-0.00154188
-0.000111385
-0.0014858
-3.15447e-05
-0.0014164
6.18632e-05
-0.00133812
0.000171197
-0.00125813
0.000302498
-0.00118766
0.000463618
-0.00114436
0.000668761
-0.00115388
0.000948211
-0.00123342
0.00136488
-0.00137327
0.00197578
-0.0016251
0.0026255
-0.00200388
0.00298606
-0.00186156
0.00355218
0.0038913
0.00793672
0.00535909
0.00581863
0.00386921
0.00557032
0.001959
0.0056405
0.00100709
0.00560257
0.000370414
0.0053564
-0.00012504
0.00489071
-0.00049794
0.00424619
-0.000773317
0.00347712
-0.000957919
0.00263721
-0.00105711
0.00176899
-0.00106814
0.000911013
-0.00100671
9.8442e-05
-0.00089503
-0.000612001
-0.000756039
-0.00116613
-0.000638733
-0.00155479
-0.000540327
-0.00181692
-0.00047442
-0.00198743
-0.000427229
-0.00210283
-0.000387999
-0.00218231
-0.000349863
-0.00223489
-0.000311907
-0.00226385
-0.000274275
-0.00227014
-0.000236483
-0.00225348
-0.00019675
-0.00221305
-0.000151784
-0.0021483
-9.62635e-05
-0.00206421
-2.22014e-05
-0.00196839
7.53811e-05
-0.00186778
0.000201874
-0.00177449
0.000370304
-0.0017062
0.000600471
-0.00168107
0.000923186
-0.00170373
0.00138781
-0.00177347
0.00204593
-0.00208254
0.00293496
-0.00305791
0.00396171
-0.00334704
0.00384149
0.000716833
0.00412075
0.00148489
0.00452087
0.00346909
0.00374509
0.00273475
0.00323734
0.00151477
0.00288813
0.000719539
0.00251926
0.000243771
0.00207012
-4.88148e-05
0.00152812
-0.000231325
0.000913555
-0.000343334
0.000245224
-0.000388753
-0.000436472
-0.000386425
-0.00107234
-0.000370816
-0.00161346
-0.000353876
-0.00203193
-0.000337538
-0.00233881
-0.000331835
-0.00255227
-0.000326869
-0.00270722
-0.000319506
-0.00282785
-0.000306653
-0.0029265
-0.000289433
-0.0030064
-0.000270041
-0.00306772
-0.000250647
-0.00310966
-0.000232356
-0.0031308
-0.00021533
-0.00312852
-0.000198974
-0.00309863
-0.000181584
-0.00303561
-0.000159185
-0.00293388
-0.000123849
-0.0027964
-6.20809e-05
-0.00263695
4.23744e-05
-0.00246814
0.000201401
-0.00229728
0.000429495
-0.0021205
0.000746361
-0.00190752
0.00117496
-0.00160457
0.00174335
-0.00114559
0.00247649
-0.00051937
0.00333595
6.19186e-05
0.00326059
0.00095755
-0.0025896
-0.00674629
-0.00740303
-0.00745359
-0.00374687
-0.00217129
-0.00166702
0.00138919
-0.000753981
0.00182166
-0.000556988
0.00131772
-0.000638628
0.000801132
-0.000826388
0.000431504
-0.00106799
0.000192772
-0.00135571
5.63911e-05
-0.00169311
-5.91415e-06
-0.00205625
-2.55812e-05
-0.00241262
-3.0008e-05
-0.00273725
-4.61323e-05
-0.00300064
-9.04429e-05
-0.00319169
-0.000146457
-0.00333179
-0.00019173
-0.00344728
-0.000211421
-0.00355679
-0.00021009
-0.00366539
-0.000198163
-0.00377081
-0.000184136
-0.00386821
-0.000172744
-0.00395298
-0.000165941
-0.00402129
-0.000164052
-0.00406951
-0.00016705
-0.00409298
-0.00017539
-0.0040849
-0.000189497
-0.00403648
-0.000207411
-0.00393859
-0.000221568
-0.00378364
-0.000216918
-0.00357058
-0.000170695
-0.00331366
-5.5659e-05
-0.00302821
0.000143817
-0.00270085
0.000418735
-0.00227078
0.000744705
-0.00163212
0.00110467
-0.000642084
0.00148665
0.000660696
0.00203345
0.0013323
0.00258933
0.00247037
-0.00733653
0.00104365
-0.00810939
-0.00668078
-0.00716671
-0.00311404
-0.00564865
-0.000128933
-0.0045559
0.000728836
-0.0039638
0.000725559
-0.00370409
0.00054138
-0.00363695
0.00036435
-0.00367868
0.000234505
-0.00377284
0.000150576
-0.00387676
9.80538e-05
-0.00396206
5.97772e-05
-0.004019
2.70007e-05
-0.00405731
-7.75138e-06
-0.0040959
-5.18122e-05
-0.00414765
-9.47044e-05
-0.00421711
-0.000122313
-0.00429901
-0.000129623
-0.00438597
-0.000123261
-0.00447193
-0.000112356
-0.00455278
-0.000103423
-0.00462589
-9.97384e-05
-0.0046895
-0.000102369
-0.00474224
-0.000111273
-0.00478266
-0.000126525
-0.00480869
-0.000149161
-0.00481736
-0.000180571
-0.0048046
-0.000219875
-0.00476543
-0.00026045
-0.00469364
-0.000288461
-0.00457881
-0.000285414
-0.00440087
-0.000233663
-0.00413712
-0.000120227
-0.00377824
5.94111e-05
-0.00329766
0.00026366
-0.00261134
0.000417956
-0.00151266
0.000387746
0.000313937
0.000206798
0.00142817
0.0014752
0.00408327
0.00158527
-0.00503098
-0.00808195
-0.00815152
-0.00736831
-0.00659606
-0.00601456
-0.00561477
-0.00534782
-0.0051665
-0.00503839
-0.00494849
-0.00489082
-0.00486724
-0.00488734
-0.00495022
-0.00504075
-0.00513864
-0.00523019
-0.0053108
-0.00538246
-0.00545045
-0.00552121
-0.00560115
-0.00569682
-0.00581586
-0.00596728
-0.00615923
-0.00639318
-0.00665668
-0.00691862
-0.00713011
-0.00722921
-0.00714948
-0.00686612
-0.00642901
-0.00602273
-0.00579815
-0.00430595
)
;

boundaryField
{
    floor
    {
        type            calculated;
        value           nonuniform List<scalar> 
36
(
0
0
0
0
0
0
0
0
0
0
0
0
0
0
0
0
0
0
0
-6.43911e-06
-1.6883e-05
-2.60263e-05
-3.42936e-05
-3.48958e-05
-2.85408e-05
-2.85083e-05
-2.92056e-06
-5.44231e-06
-5.68867e-06
-5.9087e-06
-4.85469e-06
-8.93983e-06
-1.02088e-05
-1.28325e-05
-1.44556e-05
-1.54452e-05
)
;
    }
    ceiling
    {
        type            calculated;
        value           nonuniform List<scalar> 
43
(
-5.77944e-05
-6.4589e-05
-6.3148e-05
-5.94627e-05
-5.44608e-05
-4.67621e-05
-4.01638e-05
-3.54506e-05
-3.24141e-05
-3.06885e-05
-2.99666e-05
-3.00223e-05
-3.05879e-05
-3.12678e-05
-3.16934e-05
-3.18481e-05
-3.1856e-05
-3.18398e-05
-3.18465e-05
-3.18673e-05
-3.18664e-05
-3.17975e-05
-3.16109e-05
-3.12595e-05
-3.07033e-05
-2.99142e-05
-2.88829e-05
-2.76299e-05
-2.62199e-05
-2.47668e-05
-2.34102e-05
-2.22632e-05
-2.13688e-05
-2.06904e-05
-2.01199e-05
-1.95114e-05
-1.87699e-05
-1.78945e-05
-1.69914e-05
-1.67318e-05
1.93346e-05
1.51842e-05
-0.000246547
)
;
    }
    sWall
    {
        type            calculated;
        value           nonuniform List<scalar> 9(-0.000140238 -0.000164531 -0.000194269 -0.000225975 -0.000245095 -0.000281035 -0.000423402 -0.000453439 -0.00048383);
    }
    nWall
    {
        type            calculated;
        value           nonuniform List<scalar> 
14
(
-8.98442e-05
-9.71476e-05
-0.000102338
-0.000103139
-0.000114577
-0.000122631
-0.000129039
-0.000140325
-0.000156676
-0.000172561
-0.000178198
-0.000180289
-0.000184648
-0.000205884
)
;
    }
    sideWalls
    {
        type            empty;
        value           nonuniform 0();
    }
    glass1
    {
        type            calculated;
        value           nonuniform List<scalar> 9(-6.40341e-05 -0.00017032 -0.000257922 -0.000331204 -0.000393187 -0.00044639 -0.000492199 -0.000535478 -0.000587164);
    }
    glass2
    {
        type            calculated;
        value           nonuniform List<scalar> 2(-0.000365248 -0.000382282);
    }
    sun
    {
        type            calculated;
        value           uniform 0;
    }
    Table_master
    {
        type            calculated;
        value           nonuniform List<scalar> 9(-1.53991e-07 -1.54108e-07 -1.5414e-07 -1.5416e-07 -1.54173e-07 -1.54178e-07 -1.54177e-07 -1.54162e-07 -1.54109e-07);
    }
    Table_slave
    {
        type            calculated;
        value           nonuniform List<scalar> 9(1.53661e-07 1.53717e-07 1.53716e-07 1.53733e-07 1.53753e-07 1.53797e-07 1.53864e-07 1.53957e-07 1.54084e-07);
    }
    inlet
    {
        type            calculated;
        value           uniform -0.0116488;
    }
    outlet
    {
        type            calculated;
        value           nonuniform List<scalar> 2(0.00975928 0.012267);
    }
}


// ************************************************************************* //
