/*--------------------------------*- C++ -*----------------------------------*\
  =========                 |
  \\      /  F ield         | OpenFOAM: The Open Source CFD Toolbox
   \\    /   O peration     | Website:  https://openfoam.org
    \\  /    A nd           | Version:  6
     \\/     M anipulation  |
\*---------------------------------------------------------------------------*/
FoamFile
{
    version     2.0;
    format      ascii;
    class       volScalarField;
    location    "80";
    object      nut;
}
// * * * * * * * * * * * * * * * * * * * * * * * * * * * * * * * * * * * * * //

dimensions      [0 2 -1 0 0 0 0];

internalField   nonuniform List<scalar> 
458
(
0.00119696
0.00131996
0.00136988
0.00144278
0.00151102
0.00157783
0.00164802
0.0017127
0.0017628
0.00178954
0.00178445
0.00173839
0.00161714
0.00139186
0.00115334
0.000583347
0.000698459
0.000833323
0.000920984
0.000933018
0.000880839
0.000817554
0.000760867
0.000711941
0.000669349
0.000631774
0.000597793
0.000566151
0.00053517
0.000502829
0.000466219
0.000421111
0.000354515
0.00154182
0.00373887
0.00360577
0.00417992
0.00478464
0.00537696
0.0058474
0.00628146
0.00670831
0.00708695
0.0073748
0.00753078
0.00746792
0.00697673
0.00504035
0.00151887
0.00129491
0.00105094
0.000547334
0.00148287
0.00228302
0.00295474
0.00321159
0.00222866
0.00183237
0.00155962
0.0013604
0.00121561
0.00111543
0.00104805
0.000970308
0.000865678
0.000760323
0.000675629
0.000655877
0.000383237
0.00182872
0.00507642
0.00449958
0.00531098
0.0057721
0.0061075
0.00636215
0.00665037
0.00701736
0.00745758
0.0079326
0.00837381
0.00864529
0.00855208
0.00789958
0.00627582
0.00464745
0.00131192
0.000827622
0.00168278
0.00265797
0.00358526
0.00387415
0.00117761
0.00102712
0.000892973
0.000775459
0.000672176
0.000583405
0.000513168
0.000468277
0.000443643
0.000499438
0.000563106
0.000695959
0.000399649
0.00210472
0.00632365
0.0045335
0.00551439
0.00575016
0.00578115
0.00584265
0.00601844
0.00634303
0.00683401
0.00743887
0.00803293
0.00842856
0.00858387
0.00844612
0.00791605
0.00668052
0.00362635
0.00149703
0.00182078
0.00265398
0.00382383
0.00489759
0.00505049
0.0013116
0.00117867
0.00107884
0.000997893
0.000927676
0.000863986
0.000801848
0.000737709
0.000666996
0.000567568
0.000536122
0.000717378
0.000420074
0.00239166
0.00795978
0.00481272
0.005365
0.00564029
0.00551399
0.00545513
0.00558209
0.00589444
0.00643556
0.00709358
0.00770108
0.0081084
0.00827504
0.00825347
0.00808772
0.00756893
0.00631052
0.00566089
0.00597067
0.0065515
0.00715604
0.00751582
0.00736214
0.00608532
0.00529302
0.00479353
0.00442252
0.00404681
0.00358205
0.00304889
0.00246595
0.00185
0.00125371
0.000869435
0.000803333
0.000561714
0.000486907
0.000619449
0.000693709
0.00270629
0.00981584
0.00640824
0.00531148
0.00559966
0.00555497
0.00545777
0.00552087
0.00579467
0.00634894
0.00705633
0.00768842
0.00806366
0.00815781
0.00809519
0.00805324
0.0080794
0.00805712
0.00836749
0.00891105
0.00932244
0.00946446
0.00927697
0.0087514
0.00794309
0.00725066
0.00670041
0.00618652
0.00562538
0.00501283
0.00434756
0.00363116
0.00286653
0.00208772
0.00147553
0.00112113
0.000837492
0.000744325
0.000910702
0.000659753
0.00300155
0.0111157
0.00886175
0.00669405
0.00630029
0.00610302
0.00577369
0.00565178
0.00591574
0.00654791
0.00733658
0.00799419
0.00832515
0.00835476
0.0083012
0.00847734
0.0089975
0.00961243
0.0102451
0.010676
0.0107507
0.0104832
0.00992942
0.00918828
0.0084063
0.00772124
0.00712889
0.00655854
0.00599085
0.00541625
0.00482204
0.00419966
0.00353826
0.00284279
0.00222339
0.00174518
0.00141754
0.00132138
0.00125278
0.000833562
0.00306854
0.00980294
0.00871096
0.00788447
0.00720932
0.00635666
0.00575358
0.00567972
0.00616857
0.00703374
0.00794504
0.00858274
0.00880407
0.00879333
0.00891062
0.00949624
0.0101938
0.0106952
0.0110524
0.0111329
0.0108535
0.0102744
0.00949117
0.0086191
0.00777303
0.00703829
0.0064234
0.00589304
0.0054115
0.0049602
0.00452423
0.00408465
0.00362564
0.00315926
0.00273307
0.00242082
0.00236273
0.00248069
0.00286689
0.00127181
0.00300048
0.00358542
0.00391214
0.00401851
0.00402483
0.00413999
0.00460287
0.00552536
0.0067744
0.00802475
0.00893325
0.00930368
0.00921507
0.00938068
0.00972292
0.0101288
0.0103919
0.0105284
0.010499
0.0102194
0.00966718
0.00889423
0.00799161
0.0070786
0.00627492
0.00563248
0.00511405
0.0046667
0.00425889
0.0038741
0.00349999
0.0031279
0.00276816
0.00245939
0.0022479
0.00215322
0.0021134
0.00204135
0.0019072
0.00125788
0.0010121
0.00185779
0.00312908
0.00472094
0.00647661
0.00809295
0.00927529
0.00984548
0.00982649
0.00951929
0.00913284
0.00912499
0.0092043
0.00919283
0.00909439
0.00888665
0.00850483
0.00792034
0.00718495
0.00640576
0.00569636
0.00512308
0.0046845
0.00433185
0.00401356
0.00370379
0.0034015
0.00311387
0.00284814
0.00261312
0.00241779
0.00227049
0.00217262
0.00210775
0.00203123
0.00189529
0.00170687
0.00112846
0.00209225
0.00551674
0.00832939
0.00978832
0.0101748
0.0101858
0.00981816
0.00912551
0.00833192
0.00771167
0.00728457
0.00697898
0.00671907
0.00649095
0.00626346
0.0059863
0.00563306
0.00522786
0.0048316
0.00449775
0.00424315
0.00405012
0.00388626
0.00372179
0.00353851
0.00333238
0.00311159
0.00289155
0.00268954
0.00252062
0.00239419
0.00231181
0.00226419
0.00222763
0.00217665
0.00212897
0.00236867
0.00117525
0.00224397
0.00233258
0.00240986
0.00272789
0.00259265
0.00233696
0.00211031
0.00195036
0.00179088
0.00162029
0.00145675
0.00132327
0.00123216
0.00117639
0.0011423
0.00111915
0.00109961
0.00107951
0.00105781
0.00103608
0.0010166
0.0010004
0.000986838
0.000974441
0.000961974
0.000949208
0.000937181
0.00092785
0.000923327
0.000925089
0.000933665
0.00094894
0.000970745
0.00099912
0.00103381
0.00107233
0.00110921
0.0011004
0.00103593
0.000975205
)
;

boundaryField
{
    floor
    {
        type            nutkWallFunction;
        Cmu             0.09;
        kappa           0.41;
        E               9.8;
        value           nonuniform List<scalar> 
36
(
0.000138613
7.02314e-05
8.45052e-05
0.000100878
0.00011135
0.000112778
0.000106568
9.89791e-05
9.21223e-05
8.61552e-05
8.092e-05
7.62673e-05
7.20299e-05
6.80569e-05
6.41397e-05
6.00201e-05
5.5317e-05
4.94593e-05
4.06661e-05
4.0666e-05
4.44954e-05
4.66698e-05
4.93538e-05
5.7988e-05
7.47587e-05
8.40029e-05
0.000138613
0.000180252
0.000154892
0.000126696
7.02313e-05
0.000126696
6.56953e-05
0.000156833
0.000100185
0.000177793
)
;
    }
    ceiling
    {
        type            nutkWallFunction;
        Cmu             0.09;
        kappa           0.41;
        E               9.8;
        value           nonuniform List<scalar> 
43
(
0.000259663
0.000269169
0.000277429
0.000311249
0.000297028
0.000269823
0.000245422
0.000228027
0.000210527
0.000191613
0.000173272
0.000158132
0.0001477
0.000141273
0.000137328
0.000134642
0.000132372
0.000130033
0.000127502
0.000124963
0.000122682
0.000120783
0.000119191
0.000117733
0.000116264
0.000114756
0.000113332
0.000112224
0.000111685
0.000111893
0.000112911
0.000114722
0.000117303
0.000120651
0.00012473
0.00012924
0.00013354
0.000132511
0.000124972
0.000117821
0.000340156
0.000400688
0.000243158
)
;
    }
    sWall
    {
        type            nutkWallFunction;
        Cmu             0.09;
        kappa           0.41;
        E               9.8;
        value           uniform 0.000259731;
    }
    nWall
    {
        type            nutkWallFunction;
        Cmu             0.09;
        kappa           0.41;
        E               9.8;
        value           nonuniform List<scalar> 6(8.40009e-05 7.97884e-05 0.000100996 0.00013577 0.00014119 0.000117827);
    }
    sideWalls
    {
        type            empty;
    }
    glass1
    {
        type            nutkWallFunction;
        Cmu             0.09;
        kappa           0.41;
        E               9.8;
        value           nonuniform List<scalar> 9(0.000143796 0.00018307 0.000214992 0.000245188 0.000276132 0.000309616 0.00034067 0.00034768 0.000340584);
    }
    glass2
    {
        type            nutkWallFunction;
        Cmu             0.09;
        kappa           0.41;
        E               9.8;
        value           nonuniform List<scalar> 2(0.000152344 0.00015075);
    }
    sun
    {
        type            nutkWallFunction;
        Cmu             0.09;
        kappa           0.41;
        E               9.8;
        value           nonuniform List<scalar> 
14
(
0.000143656
0.000157752
0.000163432
0.000171685
0.000179369
0.000186855
0.000194682
0.000201863
0.000207405
0.000210356
0.000209794
0.000204708
0.00019125
0.000165929
)
;
    }
    Table_master
    {
        type            nutkWallFunction;
        Cmu             0.09;
        kappa           0.41;
        E               9.8;
        value           nonuniform List<scalar> 9(0.000141385 0.000123871 0.000108008 9.38793e-05 8.12515e-05 7.02148e-05 6.13456e-05 5.56043e-05 5.24213e-05);
    }
    Table_slave
    {
        type            nutkWallFunction;
        Cmu             0.09;
        kappa           0.41;
        E               9.8;
        value           nonuniform List<scalar> 9(0.000156767 0.00014151 0.000129924 0.000120439 0.000112138 0.000104545 9.7074e-05 8.92911e-05 8.0618e-05);
    }
    inlet
    {
        type            calculated;
        value           uniform 0.000167705;
    }
    outlet
    {
        type            calculated;
        value           nonuniform List<scalar> 2(0.00224397 0.00233258);
    }
}


// ************************************************************************* //
