/*--------------------------------*- C++ -*----------------------------------*\
  =========                 |
  \\      /  F ield         | OpenFOAM: The Open Source CFD Toolbox
   \\    /   O peration     | Website:  https://openfoam.org
    \\  /    A nd           | Version:  6
     \\/     M anipulation  |
\*---------------------------------------------------------------------------*/
FoamFile
{
    version     2.0;
    format      ascii;
    class       volScalarField;
    location    "80";
    object      T;
}
// * * * * * * * * * * * * * * * * * * * * * * * * * * * * * * * * * * * * * //

dimensions      [0 0 0 1 0 0 0];

internalField   nonuniform List<scalar> 
458
(
303.259
303.001
302.981
302.971
302.961
302.952
302.943
302.931
302.916
302.901
302.892
302.894
302.915
302.955
303.001
303.669
303.572
303.492
303.453
303.459
303.479
303.507
303.54
303.577
303.62
303.668
303.721
303.778
303.838
303.902
303.969
304.041
304.118
303.427
303.043
303.014
303.009
303.005
302.997
302.986
302.965
302.931
302.893
302.866
302.862
302.884
302.917
302.955
302.972
302.996
303.037
303.727
303.497
303.409
303.385
303.392
303.41
303.435
303.467
303.509
303.563
303.626
303.695
303.767
303.84
303.911
303.981
304.05
304.122
303.609
303.097
303.058
303.065
303.074
303.077
303.07
303.038
302.973
302.899
302.847
302.836
302.863
302.898
302.93
302.954
302.979
303.017
303.546
303.378
303.32
303.325
303.359
303.375
303.4
303.437
303.493
303.576
303.68
303.788
303.877
303.939
303.979
304.021
304.069
304.128
303.798
303.163
303.105
303.125
303.157
303.183
303.188
303.139
303.029
302.908
302.828
302.813
302.846
302.892
302.932
302.959
302.982
303.008
303.025
303.07
303.132
303.209
303.295
303.376
303.441
303.485
303.524
303.561
303.6
303.644
303.696
303.759
303.838
303.946
304.023
304.078
304.13
303.987
303.245
303.155
303.177
303.229
303.284
303.309
303.233
303.067
302.903
302.806
302.791
302.836
302.903
302.96
302.996
303.017
303.038
303.069
303.123
303.201
303.294
303.394
303.489
303.571
303.634
303.688
303.739
303.791
303.84
303.886
303.93
303.973
304.016
304.056
304.092
304.129
304.151
304.217
304.237
304.161
303.351
303.228
303.232
303.291
303.369
303.383
303.263
303.062
302.874
302.768
302.766
302.838
302.937
303.022
303.077
303.108
303.138
303.187
303.259
303.351
303.454
303.558
303.654
303.737
303.804
303.862
303.915
303.961
304
304.033
304.058
304.077
304.089
304.099
304.112
304.132
304.146
304.17
304.197
304.322
303.517
303.386
303.372
303.41
303.474
303.419
303.228
302.98
302.779
302.696
302.739
302.865
303.014
303.136
303.216
303.267
303.31
303.374
303.457
303.554
303.655
303.754
303.842
303.918
303.979
304.028
304.068
304.1
304.124
304.141
304.15
304.152
304.148
304.142
304.14
304.146
304.154
304.165
304.191
304.546
303.947
303.797
303.717
303.7
303.621
303.388
303.06
302.761
302.594
302.597
302.74
302.95
303.164
303.319
303.416
303.477
303.529
303.601
303.687
303.779
303.869
303.951
304.021
304.078
304.122
304.156
304.18
304.197
304.206
304.21
304.208
304.203
304.194
304.184
304.176
304.178
304.186
304.199
304.295
304.866
304.58
304.355
304.153
303.952
303.507
302.957
302.511
302.294
302.32
302.54
302.854
303.161
303.43
303.566
303.645
303.699
303.758
303.829
303.908
303.982
304.051
304.11
304.158
304.194
304.22
304.238
304.248
304.253
304.254
304.252
304.248
304.245
304.245
304.251
304.266
304.292
304.32
304.344
304.392
297.112
298.208
298.78
299.34
300.041
300.802
301.544
302.213
302.818
303.3
303.558
303.707
303.791
303.849
303.902
303.959
304.021
304.082
304.136
304.182
304.217
304.243
304.261
304.272
304.278
304.281
304.282
304.281
304.279
304.278
304.279
304.281
304.288
304.301
304.319
304.34
304.359
304.381
297.594
298.743
299.955
300.993
301.683
302.271
302.785
303.203
303.514
303.719
303.837
303.914
303.97
304.017
304.063
304.108
304.152
304.191
304.224
304.248
304.266
304.279
304.287
304.292
304.295
304.297
304.297
304.297
304.297
304.298
304.299
304.301
304.306
304.313
304.324
304.337
304.345
304.366
299.956
299.919
299.918
301.262
302.216
302.877
303.269
303.511
303.688
303.824
303.924
303.994
304.045
304.084
304.118
304.148
304.175
304.199
304.22
304.238
304.251
304.262
304.269
304.275
304.28
304.283
304.286
304.289
304.291
304.294
304.296
304.298
304.301
304.303
304.307
304.311
304.319
304.325
304.324
304.356
)
;

boundaryField
{
    floor
    {
        type            wallHeatTransfer;
        Tinf            uniform 305.2;
        alphaWall       uniform 0.24;
        value           nonuniform List<scalar> 
36
(
303.222
303.922
303.809
303.711
303.661
303.664
303.691
303.727
303.767
303.81
303.857
303.907
303.961
304.018
304.077
304.139
304.206
304.279
304.365
304.365
304.357
304.355
304.35
304.347
304.373
304.378
303.222
303.153
303.198
303.27
303.922
303.27
303.981
303.216
303.759
303.203
)
;
    }
    ceiling
    {
        type            wallHeatTransfer;
        Tinf            uniform 303.2;
        alphaWall       uniform 0.24;
        value           nonuniform List<scalar> 
43
(
300.146
300.105
300.1
301.359
302.268
302.895
303.265
303.49
303.654
303.776
303.863
303.922
303.964
303.997
304.025
304.05
304.073
304.093
304.11
304.124
304.135
304.143
304.148
304.152
304.155
304.157
304.159
304.16
304.162
304.164
304.167
304.17
304.174
304.18
304.186
304.193
304.203
304.207
304.201
304.224
304.788
304.524
297.941
)
;
    }
    sWall
    {
        type            wallHeatTransfer;
        Tinf            uniform 315.2;
        alphaWall       uniform 0.36;
        value           uniform 301.266;
    }
    nWall
    {
        type            wallHeatTransfer;
        Tinf            uniform 307.2;
        alphaWall       uniform 0.36;
        value           nonuniform List<scalar> 6(304.843 304.833 304.735 304.793 304.768 304.817);
    }
    sideWalls
    {
        type            empty;
    }
    glass1
    {
        type            wallHeatTransfer;
        Tinf            uniform 315.2;
        alphaWall       uniform 4.3;
        value           nonuniform List<scalar> 9(311.193 310.66 310.319 310.057 309.832 309.617 309.452 309.52 309.743);
    }
    glass2
    {
        type            wallHeatTransfer;
        Tinf            uniform 307.2;
        alphaWall       uniform 4.3;
        value           nonuniform List<scalar> 2(306.182 306.222);
    }
    sun
    {
        type            wallHeatTransfer;
        Tinf            uniform 305.2;
        alphaWall       uniform 0.24;
        value           nonuniform List<scalar> 
14
(
303.449
303.2
303.176
303.159
303.144
303.129
303.114
303.098
303.081
303.065
303.057
303.062
303.091
303.15
)
;
    }
    Table_master
    {
        type            zeroGradient;
    }
    Table_slave
    {
        type            zeroGradient;
    }
    inlet
    {
        type            fixedValue;
        value           uniform 295.15;
    }
    outlet
    {
        type            zeroGradient;
    }
}


// ************************************************************************* //
