/*--------------------------------*- C++ -*----------------------------------*\
  =========                 |
  \\      /  F ield         | OpenFOAM: The Open Source CFD Toolbox
   \\    /   O peration     | Website:  https://openfoam.org
    \\  /    A nd           | Version:  6
     \\/     M anipulation  |
\*---------------------------------------------------------------------------*/
FoamFile
{
    version     2.0;
    format      ascii;
    class       volScalarField;
    location    "31799.999997843548";
    object      k;
}
// * * * * * * * * * * * * * * * * * * * * * * * * * * * * * * * * * * * * * //

dimensions      [0 2 -2 0 0 0 0];

internalField   nonuniform List<scalar> 
778
(
0.001586
0.00180129
0.00178821
0.0019468
0.00209803
0.00224026
0.00237683
0.00251228
0.00265242
0.00280551
0.00295544
0.00310145
0.00324873
0.00341097
0.00358453
0.000792474
0.00162547
0.00165154
0.00157233
0.00144439
0.0012821
0.00113011
0.000998646
0.00088708
0.000792628
0.00071291
0.000644895
0.0005859
0.000533391
0.000484661
0.000436207
0.000397925
0.000326075
0.00340712
0.00643396
0.00268776
0.00274632
0.00288802
0.00305458
0.00323485
0.00343044
0.0036434
0.00387335
0.004125
0.00437832
0.00459377
0.00469891
0.00459335
0.00429692
0.00390586
0.00357905
0.00253843
0.00281373
0.00295546
0.00289708
0.00266361
0.00226418
0.00190482
0.00160868
0.00136912
0.00117548
0.00101683
0.000885133
0.000773923
0.000681135
0.00061515
0.000574667
0.000864696
0.000524216
0.00549105
0.0127826
0.00347832
0.0032123
0.00329762
0.00345543
0.00363672
0.00384071
0.00407073
0.00432693
0.00463458
0.00500952
0.00544942
0.00595898
0.00653056
0.00685998
0.00627776
0.00538588
0.00403765
0.00416986
0.00417339
0.00397567
0.00357769
0.00266573
0.0020153
0.0015755
0.00126913
0.00104905
0.000886752
0.000764502
0.000671762
0.00060361
0.000551428
0.000548697
0.00116641
0.000678651
0.00797402
0.0217616
0.00449186
0.00339088
0.0033416
0.00343812
0.00354939
0.0036687
0.00380867
0.00399063
0.00425811
0.00464712
0.00516967
0.00582383
0.00655399
0.00713482
0.00722884
0.00724649
0.00534114
0.00554642
0.00537429
0.00512482
0.00478663
0.00434809
0.00345606
0.00285924
0.002436
0.00210965
0.00185009
0.00163157
0.0014382
0.00125825
0.0010774
0.000800556
0.000659697
0.00142364
0.000822976
0.0108771
0.0336399
0.0062142
0.00342515
0.00315832
0.00316693
0.00318946
0.00320962
0.00325171
0.00336044
0.00359379
0.00398795
0.004552
0.0052754
0.00608592
0.00681699
0.00728199
0.00764146
0.00751239
0.00665047
0.00607072
0.00557758
0.00509844
0.00462928
0.00412329
0.00366571
0.00327483
0.00293699
0.00263057
0.002347
0.00207843
0.0018178
0.00155448
0.00122169
0.000930038
0.00119145
0.00121706
0.00117108
0.00206295
0.00189125
0.0141759
0.0476058
0.00928669
0.00349028
0.00290858
0.00282268
0.00276424
0.00269928
0.00266385
0.0027341
0.00298022
0.00341352
0.0040227
0.00479717
0.00565302
0.0064606
0.00706677
0.00740385
0.0073192
0.00678607
0.00621235
0.00563559
0.0050736
0.00455583
0.0040914
0.00369575
0.00336302
0.00307348
0.00280634
0.00255086
0.00229823
0.00204159
0.00177354
0.00147124
0.00117783
0.00111258
0.00111216
0.00172093
0.0051351
0.00270095
0.0179936
0.0606128
0.0143649
0.00382012
0.0027153
0.00252934
0.00241163
0.00229375
0.00222069
0.00231127
0.00263013
0.0031393
0.00380229
0.00463243
0.00552958
0.00636731
0.00700022
0.00732591
0.00725135
0.00681526
0.00621348
0.00555384
0.00491154
0.00434273
0.00387258
0.00350055
0.00320677
0.00296179
0.00274115
0.00252859
0.00231279
0.00208659
0.001845
0.00158281
0.00132626
0.001159
0.00109299
0.00157121
0.00637523
0.00376279
0.0216429
0.0704861
0.0214431
0.00510373
0.00274299
0.00237178
0.00220995
0.00208159
0.00202587
0.00221913
0.00264974
0.00323154
0.00393891
0.00477766
0.00570316
0.00657731
0.00722574
0.00751398
0.00738312
0.00689511
0.00619786
0.00542732
0.00469217
0.00406505
0.00357488
0.00321286
0.00294798
0.00274136
0.00256435
0.00239556
0.00222142
0.0020346
0.00183156
0.0016124
0.00139483
0.00122684
0.00115848
0.00216934
0.0140355
0.00650045
0.0228339
0.0694875
0.032542
0.0110627
0.00406871
0.00258746
0.00223522
0.00210253
0.00218938
0.00251173
0.00300014
0.00360295
0.00433572
0.00521873
0.00619316
0.00709522
0.00772228
0.00792522
0.00766514
0.00702625
0.00616706
0.00525109
0.00441007
0.00372439
0.00321805
0.00287001
0.00263658
0.00247012
0.00233701
0.00221148
0.00207881
0.00193204
0.00176875
0.00159066
0.00141074
0.00127928
0.00136684
0.00436017
0.0280444
0.00853922
0.0219173
0.0516243
0.0336451
0.0174386
0.00858986
0.00475929
0.00326044
0.00272905
0.00285198
0.00320958
0.00367165
0.00424766
0.00500047
0.0059481
0.00698675
0.00789919
0.00844933
0.00848727
0.00800518
0.00712633
0.00604593
0.00495986
0.00401694
0.00329491
0.00280092
0.0024911
0.0023045
0.00218655
0.0020982
0.00201274
0.0019168
0.00180478
0.00167538
0.00153098
0.00138332
0.00129318
0.00179945
0.0113168
0.0232022
0.00872452
0.0192305
0.0394274
0.0302361
0.019568
0.0121836
0.00793879
0.00571626
0.00466764
0.00436003
0.00439733
0.00465102
0.00514703
0.00594263
0.00699488
0.00810549
0.00897876
0.00935156
0.00909947
0.00827499
0.00706506
0.00571989
0.00446987
0.00347048
0.00277517
0.00235311
0.00211916
0.00199495
0.00192733
0.0018773
0.00182324
0.00175529
0.00166956
0.00156592
0.00144818
0.00133102
0.00129895
0.00223365
0.0110229
0.0216164
0.00868455
0.0159456
0.0315818
0.0266494
0.0195394
0.0139765
0.0102839
0.00802637
0.00674994
0.00604656
0.00572819
0.00578155
0.00627799
0.00722109
0.00843649
0.00958679
0.0102973
0.010316
0.00959328
0.00828694
0.00667179
0.00506804
0.00373371
0.0028016
0.00224113
0.00196063
0.00182078
0.00175201
0.0017182
0.00169062
0.0016552
0.00160519
0.00153743
0.00145372
0.00136101
0.00127927
0.00131255
0.00231021
0.00946571
0.0207568
0.00929382
0.0132642
0.0256783
0.0233554
0.0186926
0.0145851
0.0115889
0.00954358
0.00820875
0.00729833
0.00683848
0.0069593
0.00772797
0.00899616
0.0103876
0.0114244
0.0117123
0.011101
0.00968578
0.00778598
0.00576965
0.00404195
0.00284454
0.00219944
0.00186653
0.00170404
0.00162445
0.00158453
0.00156272
0.00154088
0.00151035
0.0014671
0.00141068
0.00134504
0.00128162
0.00126216
0.0014919
0.00282588
0.0093509
0.0181438
0.0102346
0.0133561
0.0224272
0.0220669
0.0177653
0.0143958
0.0118963
0.0100853
0.00876903
0.00791742
0.00777442
0.00847856
0.00988385
0.0115494
0.0128934
0.0134094
0.0128298
0.0112504
0.00896172
0.0065171
0.00430938
0.00296025
0.00221793
0.00184858
0.00166604
0.00157299
0.00152132
0.0014881
0.0014618
0.00143271
0.00139579
0.00134945
0.00129708
0.00125313
0.00126709
0.00149968
0.00229042
0.00427022
0.00999526
0.0182537
0.0100045
0.0108795
0.0117684
0.0129257
0.0125537
0.011375
0.0100748
0.00894646
0.00820217
0.00830081
0.00941724
0.0113031
0.013383
0.0149754
0.0155365
0.0148137
0.01283
0.0100947
0.00698967
0.0046121
0.0031085
0.0023184
0.00193197
0.00174048
0.00163528
0.0015688
0.00151947
0.00147658
0.00143449
0.00139038
0.00134314
0.00129398
0.00125478
0.0012655
0.00144274
0.00205186
0.00348578
0.00621783
0.0108257
0.0164395
0.00882318
0.00354087
0.00481852
0.00598784
0.00659248
0.00727091
0.00878482
0.0113028
0.0141417
0.0165708
0.0180106
0.0180869
0.0167232
0.0141528
0.0105318
0.00723282
0.00475683
0.00326245
0.00249999
0.0021457
0.00197122
0.00186881
0.00179545
0.00173497
0.00168083
0.00163032
0.00158247
0.00153717
0.00150262
0.0014799
0.00148232
0.00155684
0.0018273
0.00255415
0.00414405
0.00703086
0.011341
0.0157232
0.0080546
0.00444656
0.00627921
0.00809145
0.0109986
0.0146702
0.0181311
0.0203779
0.0214536
0.0213874
0.0201578
0.0175871
0.0140584
0.0103518
0.00704357
0.00472442
0.00340623
0.0027875
0.00252229
0.00240049
0.00233069
0.00228055
0.00224044
0.0022096
0.00219068
0.00218632
0.0021962
0.00221467
0.00222984
0.0022488
0.00229314
0.00239519
0.00265637
0.00327666
0.00460856
0.00715704
0.0114746
0.0178662
0.00893113
0.015079
0.0245564
0.0181331
0.0143782
0.0169695
0.0206541
0.0227756
0.0234783
0.0230361
0.0216952
0.0196805
0.0170006
0.0137627
0.0103505
0.00734124
0.00521543
0.00406162
0.00356597
0.00338534
0.00332134
0.00328994
0.00325984
0.00322356
0.0031858
0.00315714
0.00314915
0.00317102
0.00322834
0.00332291
0.00345159
0.00360238
0.00376787
0.00400835
0.00441597
0.00511228
0.0063706
0.00878171
0.0144207
0.018008
0.0103426
0.0138075
0.0170639
0.01782
0.0207288
0.0216548
0.0220705
0.0210762
0.0192699
0.01716
0.0149921
0.0128581
0.0107857
0.0087973
0.00701825
0.00562811
0.00476416
0.00433975
0.00418246
0.00416266
0.00420507
0.00426629
0.00432244
0.00436466
0.00439619
0.00442862
0.00447794
0.00456187
0.00469984
0.00491441
0.00523153
0.00567651
0.00626255
0.00696534
0.00778162
0.00880697
0.010295
0.0126509
0.0173409
0.0199916
0.0111451
0.0121333
0.00891513
0.0088304
0.0093601
0.0098146
0.00926157
0.00821228
0.00705839
0.00597671
0.00501256
0.00416492
0.00343916
0.00286614
0.00248191
0.00228434
0.00221142
0.0022122
0.00224979
0.00230345
0.0023624
0.00242141
0.00247908
0.00253721
0.00260043
0.00267599
0.00277384
0.00290709
0.00309201
0.00334616
0.00368346
0.00410825
0.00461373
0.00518954
0.00583815
0.00657179
0.00737494
0.00825305
0.00924528
0.0103252
0.00942447
)
;

boundaryField
{
    floor
    {
        type            kqRWallFunction;
        value           nonuniform List<scalar> 
36
(
0.00358453
0.000792474
0.00162547
0.00165154
0.00157233
0.00144439
0.0012821
0.00113011
0.000998646
0.00088708
0.000792628
0.00071291
0.000644895
0.0005859
0.000533391
0.000484661
0.000436207
0.000397925
0.000326075
0.000326075
0.000524216
0.000678651
0.000822976
0.00117108
0.00206295
0.00189125
0.00358453
0.00429692
0.00390586
0.00357905
0.000792474
0.00357905
0.00253843
0.00538588
0.00403765
0.00534114
)
;
    }
    ceiling
    {
        type            kqRWallFunction;
        value           nonuniform List<scalar> 
43
(
0.0121333
0.00891513
0.0088304
0.0093601
0.0098146
0.00926157
0.00821228
0.00705839
0.00597671
0.00501256
0.00416492
0.00343916
0.00286614
0.00248191
0.00228434
0.00221142
0.0022122
0.00224979
0.00230345
0.0023624
0.00242141
0.00247908
0.00253721
0.00260043
0.00267599
0.00277384
0.00290709
0.00309201
0.00334616
0.00368346
0.00410825
0.00461373
0.00518954
0.00583815
0.00657179
0.00737494
0.00825305
0.00924528
0.0103252
0.00942447
0.0108795
0.0117684
0.00444656
)
;
    }
    sWall
    {
        type            kqRWallFunction;
        value           nonuniform List<scalar> 9(0.0219173 0.0192305 0.0159456 0.0132642 0.0133561 0.0108795 0.015079 0.0138075 0.0121333);
    }
    nWall
    {
        type            kqRWallFunction;
        value           nonuniform List<scalar> 
14
(
0.00189125
0.00270095
0.00376279
0.00872452
0.00868455
0.00929382
0.0102346
0.0100045
0.00882318
0.0080546
0.00893113
0.0103426
0.0111451
0.00942447
)
;
    }
    sideWalls
    {
        type            empty;
    }
    glass1
    {
        type            kqRWallFunction;
        value           nonuniform List<scalar> 9(0.001586 0.00340712 0.00549105 0.00797402 0.0108771 0.0141759 0.0179936 0.0216429 0.0228339);
    }
    glass2
    {
        type            kqRWallFunction;
        value           nonuniform List<scalar> 2(0.00650045 0.00853922);
    }
    sun
    {
        type            kqRWallFunction;
        value           nonuniform List<scalar> 
14
(
0.001586
0.00180129
0.00178821
0.0019468
0.00209803
0.00224026
0.00237683
0.00251228
0.00265242
0.00280551
0.00295544
0.00310145
0.00324873
0.00341097
)
;
    }
    Table_master
    {
        type            kqRWallFunction;
        value           nonuniform List<scalar> 9(0.00266573 0.0020153 0.0015755 0.00126913 0.00104905 0.000886752 0.000764502 0.000671762 0.00060361);
    }
    Table_slave
    {
        type            kqRWallFunction;
        value           nonuniform List<scalar> 9(0.00345606 0.00285924 0.002436 0.00210965 0.00185009 0.00163157 0.0014382 0.00125825 0.0010774);
    }
    inlet
    {
        type            turbulentIntensityKineticEnergyInlet;
        intensity       0.05;
        value           uniform 0.0009375;
    }
    outlet
    {
        type            zeroGradient;
    }
}


// ************************************************************************* //
