/*--------------------------------*- C++ -*----------------------------------*\
  =========                 |
  \\      /  F ield         | OpenFOAM: The Open Source CFD Toolbox
   \\    /   O peration     | Website:  https://openfoam.org
    \\  /    A nd           | Version:  6
     \\/     M anipulation  |
\*---------------------------------------------------------------------------*/
FoamFile
{
    version     2.0;
    format      ascii;
    class       volScalarField;
    location    "31799.999997843548";
    object      nut;
}
// * * * * * * * * * * * * * * * * * * * * * * * * * * * * * * * * * * * * * //

dimensions      [0 2 -1 0 0 0 0];

internalField   nonuniform List<scalar> 
778
(
0.000894327
0.000953096
0.000949628
0.000990843
0.00102861
0.0010629
0.00109482
0.00112558
0.00115655
0.00118946
0.00122083
0.00125062
0.00127997
0.00131154
0.0013445
0.000632174
0.00090539
0.000912621
0.000890468
0.000853472
0.000804093
0.000754929
0.000709661
0.000668847
0.000632238
0.000599602
0.000570283
0.000543573
0.000518643
0.000494384
0.00046902
0.000447967
0.000405512
0.00131081
0.00258127
0.00226513
0.00261451
0.0028681
0.00313693
0.00340505
0.00365208
0.00385085
0.00396646
0.00403436
0.00400616
0.0038062
0.00331116
0.0024182
0.00147205
0.00140347
0.00134347
0.00113143
0.00192693
0.00267055
0.00310949
0.00312978
0.00247001
0.00211247
0.00186453
0.00167638
0.00152682
0.00139934
0.0012866
0.00118167
0.001079
0.000986854
0.000907407
0.00102229
0.000514163
0.00166407
0.00360463
0.00267232
0.00382239
0.00427126
0.00465114
0.00499609
0.00529958
0.00555654
0.00575785
0.00595285
0.00615795
0.00634636
0.00645844
0.00638394
0.00584565
0.00427581
0.00164806
0.00142695
0.00305243
0.00426017
0.00483155
0.00439441
0.00115946
0.00100813
0.000891367
0.00080002
0.000727354
0.000668725
0.00062092
0.000582041
0.000551727
0.000606544
0.000713553
0.00113035
0.000585019
0.00200532
0.00485882
0.00255737
0.00429813
0.00496272
0.00531847
0.00558007
0.00577353
0.00591779
0.00603452
0.00620048
0.00648088
0.00689009
0.00740487
0.00792273
0.00817848
0.00768148
0.00573528
0.0016412
0.00379649
0.00565149
0.00659562
0.00682934
0.00583109
0.00132019
0.0012008
0.00110837
0.00103146
0.000965924
0.000907089
0.000851639
0.000796581
0.000737115
0.000688605
0.000713865
0.00122414
0.000644231
0.00234208
0.00643376
0.0025805
0.00408617
0.00510796
0.00541148
0.00552188
0.0055264
0.00547164
0.00542294
0.00549224
0.00576454
0.00626438
0.00697245
0.00779397
0.00855126
0.00903154
0.00902562
0.00809957
0.00824059
0.00843065
0.00845857
0.00828755
0.0077578
0.0061743
0.00533347
0.00475743
0.00428979
0.00383073
0.00338585
0.00295056
0.00251596
0.00206973
0.0015898
0.00121305
0.00121235
0.00095934
0.00076849
0.00101986
0.000976588
0.00267374
0.00819718
0.00303849
0.00344598
0.00489444
0.00523122
0.00520473
0.0050177
0.00475008
0.00452925
0.00452419
0.00480962
0.00537924
0.00620023
0.00716107
0.00812166
0.00893843
0.00946065
0.00955584
0.00946042
0.00929359
0.00905659
0.00875137
0.00836246
0.00779448
0.00724705
0.00674991
0.0062696
0.00575057
0.00519616
0.00460406
0.00396942
0.00328832
0.00256575
0.00191135
0.00143509
0.0011148
0.00125285
0.00218481
0.0011671
0.00301234
0.0098287
0.00404983
0.00282337
0.00439804
0.00494853
0.00488782
0.00458488
0.00414526
0.00375866
0.00374773
0.00410855
0.00476088
0.00567905
0.00672291
0.00775647
0.0086459
0.00928307
0.00957644
0.00955436
0.00934549
0.00902863
0.00866538
0.0083027
0.00795169
0.00762943
0.00732654
0.00700334
0.00661258
0.00614217
0.00558546
0.00493997
0.0042082
0.00340842
0.00262597
0.00189751
0.00139772
0.00124994
0.00222752
0.00137747
0.00330371
0.0110654
0.00552278
0.00268893
0.00348399
0.00438722
0.00451342
0.00426443
0.00374488
0.00321913
0.00333878
0.00381641
0.00454655
0.00549295
0.00657782
0.00765966
0.00858191
0.0092225
0.00951356
0.00947593
0.00920585
0.00880705
0.00837771
0.00799668
0.00770286
0.00749289
0.00732901
0.00715079
0.00690232
0.00655459
0.00609425
0.00551874
0.0048335
0.00405822
0.00325065
0.00243494
0.00169835
0.00114999
0.00320353
0.00181017
0.0033934
0.0104825
0.00683841
0.00347853
0.00236192
0.00289432
0.00338834
0.00343045
0.0030294
0.00294462
0.00325075
0.00381274
0.00460306
0.00560775
0.0067455
0.00786061
0.00877884
0.00936887
0.00957566
0.00943275
0.00904074
0.00852632
0.00801551
0.00760767
0.00734879
0.00722184
0.0071643
0.0070958
0.00695263
0.00670111
0.0063281
0.00583236
0.00521996
0.00450643
0.00372149
0.00283822
0.0016253
0.00149095
0.00494949
0.00207496
0.00332459
0.00845615
0.00706657
0.00477727
0.00315365
0.00244077
0.00231148
0.00242068
0.0026244
0.0029486
0.00340863
0.00404165
0.0049023
0.00598689
0.00718737
0.00831795
0.00918686
0.00966358
0.00971156
0.00938882
0.00882208
0.00816967
0.00758664
0.0071868
0.00700368
0.00698276
0.00702288
0.00702233
0.00692932
0.00672533
0.00640436
0.00596608
0.0054135
0.00475077
0.00396004
0.00279524
0.00119804
0.0029512
0.00457355
0.00209727
0.00311415
0.00722956
0.00683492
0.00546896
0.00420732
0.00338598
0.00297974
0.00288773
0.00305577
0.0033653
0.00381521
0.00448405
0.00543582
0.0066263
0.0078883
0.00899378
0.00973992
0.0100137
0.00981393
0.0092395
0.00846112
0.00768113
0.00708701
0.00678855
0.00675495
0.00685427
0.00695368
0.0069557
0.00685725
0.0066597
0.00635964
0.00595217
0.00543066
0.00477712
0.00391875
0.00256758
0.00126123
0.00318717
0.00474208
0.0020919
0.00283573
0.00652059
0.00659556
0.00579133
0.00492502
0.00427319
0.00388943
0.003752
0.00378612
0.00397263
0.00438565
0.00513367
0.0062355
0.00755503
0.00884314
0.00983459
0.0103385
0.0102873
0.00973949
0.00885486
0.00786966
0.00704444
0.00657527
0.00648274
0.00656901
0.00670163
0.00678682
0.00676197
0.00664698
0.0064473
0.00615671
0.00575716
0.0052209
0.00449076
0.00347306
0.00219761
0.00149614
0.00321875
0.00511883
0.00216211
0.00258633
0.00583631
0.00630125
0.00591955
0.00536266
0.00489526
0.00458447
0.00443233
0.00438634
0.00454469
0.00506918
0.00604785
0.00738236
0.00881049
0.0100118
0.0107226
0.0108105
0.0102906
0.00931157
0.00811481
0.00702971
0.00633173
0.00602827
0.00600219
0.00610282
0.00622414
0.00629335
0.00626629
0.00614671
0.00594291
0.00564316
0.00521069
0.00456711
0.00362023
0.00247512
0.00171243
0.00183645
0.00357689
0.00509485
0.00227028
0.00259528
0.00579373
0.00643974
0.00599271
0.00554151
0.00517222
0.00490579
0.00473216
0.00472241
0.00510771
0.00603432
0.00742248
0.00898788
0.0103642
0.0112308
0.0114042
0.010873
0.00976736
0.00836563
0.0070045
0.00601557
0.0054408
0.00518829
0.00515027
0.00522345
0.00531721
0.00536614
0.0053351
0.0051997
0.0049744
0.00463484
0.00410733
0.00328811
0.00228989
0.00165499
0.00169727
0.00235445
0.00401
0.0053814
0.00224791
0.00234234
0.00243614
0.0035919
0.00421848
0.00441127
0.00441294
0.00436869
0.00444682
0.00498229
0.0061323
0.00775743
0.00951478
0.011015
0.0119324
0.01208
0.0114309
0.0101496
0.00848438
0.0068951
0.00565248
0.0048302
0.00437703
0.00418966
0.00414994
0.00416586
0.00417354
0.00413521
0.00403678
0.0038593
0.00361046
0.00328278
0.00282794
0.00223309
0.00172259
0.00164355
0.00206678
0.00288623
0.00398231
0.00473139
0.00211143
0.000806649
0.00146255
0.00225603
0.00289513
0.00363526
0.00488893
0.00673756
0.00879843
0.0106827
0.0120933
0.0128231
0.0127375
0.0118467
0.0102575
0.00837658
0.00660485
0.00521055
0.00429449
0.00380995
0.00359141
0.00349425
0.00343395
0.00336454
0.00326256
0.00312396
0.00296092
0.00279235
0.0026182
0.00244277
0.00225084
0.00203463
0.00187223
0.00195697
0.00242504
0.00321058
0.00404895
0.00442398
0.00201637
0.00149746
0.00207315
0.00302443
0.00472671
0.00704282
0.00937273
0.0111881
0.0125101
0.0133193
0.0135494
0.0130895
0.0118341
0.00998621
0.00791253
0.00602882
0.00464424
0.00385751
0.00350414
0.00336394
0.00330366
0.00326125
0.00320829
0.0031341
0.00304108
0.00294064
0.00284599
0.00276452
0.00269333
0.00262869
0.00256867
0.00251692
0.00250176
0.00260646
0.0029669
0.00367033
0.00464196
0.00546796
0.00211872
0.0027576
0.0066817
0.00613761
0.00547271
0.00695468
0.00928744
0.0112657
0.0126134
0.0133391
0.0135356
0.0132784
0.0125119
0.0111878
0.00935246
0.00728795
0.00546856
0.00428543
0.00372615
0.00352581
0.00347426
0.0034692
0.00346558
0.00344457
0.00340199
0.00334302
0.00327748
0.00321538
0.00316478
0.00313199
0.0031224
0.00313871
0.00318145
0.00325462
0.00337576
0.00359698
0.00399448
0.0046944
0.00602533
0.00620514
0.00228399
0.00263878
0.00509554
0.00656145
0.00838545
0.00931427
0.010281
0.010851
0.0109988
0.0108015
0.0103111
0.00953911
0.00847575
0.00714966
0.00572905
0.00450826
0.0037302
0.00335701
0.00322841
0.00321987
0.00326123
0.00331296
0.00335244
0.00336932
0.00336284
0.00333819
0.0033025
0.00326313
0.00322931
0.00321529
0.00324134
0.00333048
0.00350118
0.00375365
0.0040674
0.00441728
0.00488679
0.00557208
0.00671163
0.00665523
0.0023715
0.00247362
0.00212035
0.00211025
0.00217262
0.00222474
0.00216114
0.00203501
0.00188659
0.00173596
0.00158969
0.00144896
0.00131661
0.00120193
0.00111856
0.0010732
0.00105601
0.00105624
0.00106518
0.00107777
0.00109142
0.00110491
0.00111794
0.00113095
0.00114498
0.00116158
0.00118279
0.00121113
0.0012494
0.00130011
0.00136435
0.00144096
0.00152687
0.001619
0.00171682
0.00182095
0.00192846
0.0020396
0.00215842
0.002281
0.00218017
)
;

boundaryField
{
    floor
    {
        type            nutkWallFunction;
        Cmu             0.09;
        kappa           0.41;
        E               9.8;
        value           nonuniform List<scalar> 
36
(
0.000160534
7.63579e-05
0.000109524
0.000110383
0.000107746
0.000103325
9.73881e-05
9.14345e-05
8.59119e-05
8.08964e-05
7.63662e-05
7.2301e-05
6.86258e-05
6.52576e-05
6.20954e-05
5.90002e-05
5.57437e-05
5.30239e-05
4.74888e-05
4.74888e-05
6.15248e-05
7.04753e-05
7.7853e-05
9.30812e-05
0.000123064
0.000117962
0.000160534
0.00017497
0.000167226
0.000160416
7.63579e-05
0.000160416
0.000136065
0.000194667
0.000169881
0.000193903
)
;
    }
    ceiling
    {
        type            nutkWallFunction;
        Cmu             0.09;
        kappa           0.41;
        E               9.8;
        value           nonuniform List<scalar> 
43
(
0.000284312
0.000246399
0.000245308
0.000252055
0.000257683
0.000250843
0.000237193
0.000221006
0.000204433
0.00018819
0.000172406
0.0001574
0.000144254
0.000134598
0.000129307
0.00012729
0.000127312
0.000128356
0.00012983
0.000131427
0.000133004
0.000134524
0.000136037
0.00013766
0.000139572
0.000142004
0.000145241
0.000149598
0.000155357
0.000162635
0.000171294
0.000180972
0.000191304
0.000202207
0.000213757
0.000225611
0.000237779
0.000250695
0.000263909
0.000252946
0.000270493
0.000280517
0.000177621
)
;
    }
    sWall
    {
        type            nutkWallFunction;
        Cmu             0.09;
        kappa           0.41;
        E               9.8;
        value           nonuniform List<scalar> 9(0.000373883 0.000352052 0.000322934 0.000296603 0.000297548 0.000270582 0.000314403 0.000301893 0.000284414);
    }
    nWall
    {
        type            nutkWallFunction;
        Cmu             0.09;
        kappa           0.41;
        E               9.8;
        value           nonuniform List<scalar> 
14
(
0.00011797
0.00014021
0.000164307
0.000244051
0.00024353
0.000251342
0.000262865
0.000260104
0.000245337
0.000235132
0.00024673
0.000264153
0.000273478
0.000252984
)
;
    }
    sideWalls
    {
        type            empty;
    }
    glass1
    {
        type            nutkWallFunction;
        Cmu             0.09;
        kappa           0.41;
        E               9.8;
        value           nonuniform List<scalar> 9(0.00010825 0.000156885 0.000196741 0.000234356 0.000270802 0.000306154 0.000341775 0.000372097 0.000381384);
    }
    glass2
    {
        type            nutkWallFunction;
        Cmu             0.09;
        kappa           0.41;
        E               9.8;
        value           nonuniform List<scalar> 2(0.000212799 0.000241747);
    }
    sun
    {
        type            nutkWallFunction;
        Cmu             0.09;
        kappa           0.41;
        E               9.8;
        value           nonuniform List<scalar> 
14
(
0.000108209
0.000115185
0.000114774
0.00011964
0.000124077
0.000128091
0.000131813
0.000135389
0.000138977
0.000142779
0.000146391
0.000149813
0.000153174
0.000156781
)
;
    }
    Table_master
    {
        type            nutkWallFunction;
        Cmu             0.09;
        kappa           0.41;
        E               9.8;
        value           nonuniform List<scalar> 9(0.000139303 0.000121666 0.00010785 9.68956e-05 8.80764e-05 8.08847e-05 7.49647e-05 7.01095e-05 6.62966e-05);
    }
    Table_slave
    {
        type            nutkWallFunction;
        Cmu             0.09;
        kappa           0.41;
        E               9.8;
        value           nonuniform List<scalar> 9(0.000157754 0.000144075 0.00013338 0.000124404 0.000116695 0.000109722 0.000103103 9.64805e-05 8.9267e-05);
    }
    inlet
    {
        type            calculated;
        value           uniform 0.000167705;
    }
    outlet
    {
        type            calculated;
        value           nonuniform List<scalar> 2(0.0027576 0.0066817);
    }
}


// ************************************************************************* //
