/*--------------------------------*- C++ -*----------------------------------*\
  =========                 |
  \\      /  F ield         | OpenFOAM: The Open Source CFD Toolbox
   \\    /   O peration     | Website:  https://openfoam.org
    \\  /    A nd           | Version:  6
     \\/     M anipulation  |
\*---------------------------------------------------------------------------*/
FoamFile
{
    version     2.0;
    format      ascii;
    class       volScalarField;
    location    "6700";
    object      alphat;
}
// * * * * * * * * * * * * * * * * * * * * * * * * * * * * * * * * * * * * * //

dimensions      [1 -1 -1 0 0 0 0];

internalField   nonuniform List<scalar> 
778
(
0.00104099
0.00111052
0.0011065
0.00115452
0.00119853
0.00123851
0.00127575
0.00131165
0.00134781
0.00138625
0.00142293
0.00145779
0.00149214
0.00152907
0.00156758
0.000736891
0.00105562
0.00106427
0.00103859
0.000995545
0.000937949
0.000880515
0.000827607
0.000779928
0.0007372
0.000699138
0.000664952
0.000633809
0.000604736
0.00057644
0.00054685
0.000522255
0.00047268
0.00152467
0.00300719
0.00263923
0.00304625
0.00334148
0.00365447
0.00396671
0.00425452
0.00448632
0.00462146
0.00470103
0.00466873
0.00443627
0.00385974
0.00281914
0.00171651
0.00163661
0.00156657
0.0013184
0.00224621
0.00311392
0.00362677
0.00365104
0.00288106
0.00246401
0.00217501
0.00195559
0.00178098
0.00163203
0.00150041
0.00137798
0.00125821
0.00115073
0.00105804
0.00119133
0.000599259
0.00193415
0.00419861
0.00311332
0.00445322
0.0049757
0.00541773
0.00581919
0.0061726
0.00647217
0.00670732
0.00693524
0.00717531
0.0073962
0.00752809
0.00744189
0.00681422
0.00498375
0.00192159
0.00166352
0.00355852
0.00496627
0.00563285
0.00512326
0.00135205
0.00117578
0.00103975
0.000933281
0.000848521
0.000780089
0.000724265
0.000678864
0.000643469
0.000707374
0.000831981
0.00131658
0.000681688
0.00232911
0.00565811
0.00297898
0.00500691
0.00578043
0.00619403
0.00649803
0.00672291
0.00689085
0.00702727
0.0072213
0.00754932
0.00802808
0.00863013
0.00923528
0.00953357
0.00895209
0.00667681
0.00191385
0.00443373
0.00659361
0.00769076
0.00796193
0.00679769
0.00153928
0.00140016
0.00129251
0.00120297
0.00112664
0.00105807
0.000993408
0.000929188
0.000859842
0.000803286
0.000832413
0.00142452
0.000750579
0.00271837
0.00749001
0.00300537
0.00475945
0.00594881
0.00630135
0.00642903
0.0064336
0.00636949
0.00631298
0.00639432
0.00671299
0.00729778
0.00812586
0.00908616
0.00997073
0.0105323
0.0105265
0.00944784
0.00961317
0.00983254
0.00986275
0.00966225
0.00904444
0.00719828
0.00621844
0.00554729
0.00500186
0.00446695
0.0039488
0.00344185
0.00293544
0.00241502
0.00185525
0.00141606
0.00141302
0.00111812
0.000894514
0.00117241
0.00112609
0.0031013
0.00954
0.00353796
0.00401335
0.00569945
0.00609065
0.00605891
0.00584047
0.0055285
0.00527129
0.00526568
0.00559931
0.0062654
0.00722539
0.00834902
0.00947116
0.0104267
0.011037
0.0111482
0.0110357
0.0108388
0.0105603
0.0102031
0.00974933
0.00908728
0.0084495
0.00787044
0.00731052
0.00670609
0.00606066
0.00537119
0.00463169
0.00383741
0.00299481
0.0022328
0.00167661
0.00130123
0.00145439
0.00251814
0.00134875
0.00349204
0.0114351
0.00471427
0.00328786
0.00512088
0.00576093
0.00568951
0.00533635
0.0048243
0.00437372
0.00436042
0.00478106
0.00554303
0.00661565
0.00783685
0.00904557
0.0100858
0.0108306
0.0111729
0.0111457
0.0108997
0.0105279
0.0101028
0.00967915
0.00926973
0.00889416
0.00854145
0.00816496
0.00771045
0.0071634
0.00651555
0.00576363
0.00491058
0.00397882
0.00306957
0.00222219
0.00163672
0.00145896
0.00255106
0.00158662
0.00382777
0.012868
0.00642662
0.00313061
0.00405639
0.00510677
0.00525305
0.00496288
0.00435773
0.00374489
0.00388325
0.0044392
0.00529081
0.00639598
0.00766398
0.00892941
0.0100088
0.0107587
0.0110991
0.011054
0.0107366
0.010269
0.00976648
0.00932123
0.00897818
0.00873315
0.0085422
0.00833476
0.00804635
0.00764267
0.00710758
0.00643765
0.00563948
0.00473799
0.0038036
0.0028621
0.00201414
0.00133111
0.00363552
0.00206293
0.00392902
0.0121741
0.00794981
0.00404689
0.00275036
0.0033698
0.0039428
0.00399104
0.00352365
0.00342485
0.00378043
0.00443396
0.00535417
0.00652551
0.00785405
0.00915845
0.0102344
0.0109268
0.0111698
0.0110023
0.0105425
0.00993965
0.00934195
0.00886545
0.00856311
0.0084146
0.00834725
0.0082675
0.0081018
0.00781042
0.0073774
0.00680084
0.00608853
0.00526163
0.0043581
0.00334837
0.00201001
0.00161354
0.00544356
0.00235564
0.00384959
0.00981175
0.00820754
0.00555314
0.00366864
0.00284113
0.00269085
0.002817
0.00305357
0.00343027
0.00396452
0.00469975
0.00569994
0.00696213
0.00836248
0.00968519
0.0107052
0.0112673
0.0113262
0.010949
0.0102845
0.00952007
0.00883822
0.00837154
0.0081578
0.00813253
0.00817842
0.00817731
0.00806979
0.0078335
0.00746064
0.00695048
0.00630813
0.00554117
0.00461235
0.00322798
0.00156381
0.00279772
0.00557911
0.00239714
0.00360597
0.00838436
0.00793367
0.00635298
0.00489082
0.00393839
0.00346736
0.00336103
0.00355638
0.00391574
0.00443795
0.00521372
0.00631765
0.00770074
0.00917179
0.0104663
0.0113457
0.0116735
0.0114442
0.0107725
0.00985956
0.00894579
0.0082525
0.00790512
0.0078648
0.0079778
0.0080919
0.00809374
0.00798013
0.00775071
0.00740028
0.00692339
0.0063163
0.00555643
0.00443586
0.00249718
0.00174729
0.00346361
0.0052743
0.00236803
0.00328322
0.00755831
0.00765135
0.006723
0.00572076
0.004966
0.00452168
0.00436307
0.00440364
0.00462122
0.00510128
0.00596802
0.00724386
0.00877497
0.0102765
0.011441
0.0120421
0.0119936
0.0113582
0.0103225
0.00916679
0.00820284
0.00765943
0.00754912
0.00764174
0.00779009
0.00788978
0.00786203
0.00773077
0.00749898
0.00715732
0.00669174
0.00608385
0.0052688
0.00373874
0.00180249
0.00221798
0.00375426
0.00485612
0.00228946
0.00299346
0.00675793
0.00730295
0.00686599
0.00622373
0.0056838
0.00532482
0.0051498
0.00509896
0.00528642
0.00589701
0.00702986
0.00857307
0.0102291
0.0116317
0.0124749
0.0125972
0.0120048
0.0108639
0.00946275
0.00819613
0.00738726
0.00703152
0.00698125
0.00707318
0.00720372
0.00729462
0.00727461
0.00714791
0.00691639
0.0065668
0.00608049
0.00543574
0.00454307
0.00303742
0.00177626
0.00242858
0.00391196
0.00497131
0.00223729
0.00300333
0.0067062
0.00746021
0.00694735
0.00642787
0.00600237
0.00569581
0.00549784
0.0054932
0.00594772
0.00702477
0.00862917
0.0104365
0.012032
0.0130507
0.0132775
0.0126866
0.0114115
0.0097737
0.00819281
0.00705209
0.00638079
0.00605287
0.00595281
0.00599026
0.00609003
0.00618095
0.0061816
0.0060546
0.00579747
0.00539244
0.00483372
0.00414946
0.00338426
0.00253268
0.00190128
0.00248314
0.0040755
0.00536799
0.00236214
0.00270955
0.00281949
0.00416529
0.00489766
0.00512533
0.00513056
0.00508283
0.00518183
0.00581694
0.00716144
0.00904414
0.0110679
0.0127927
0.0138567
0.01405
0.0133328
0.0118768
0.00995096
0.00811649
0.00668846
0.0057269
0.00515746
0.00486842
0.00474332
0.00470731
0.00471852
0.00473687
0.00469305
0.00451441
0.00419139
0.00372642
0.00318355
0.00268746
0.00234492
0.00217781
0.00219567
0.00278634
0.00454175
0.005421
0.00242481
0.000965289
0.00174082
0.0026709
0.00341626
0.00428295
0.00575835
0.0079221
0.0103111
0.0124708
0.0140709
0.0148932
0.0148013
0.0138058
0.0120092
0.0098772
0.00785827
0.00625912
0.0051767
0.00456188
0.00423509
0.00404191
0.00390533
0.00379609
0.00370218
0.00360931
0.00348503
0.00327969
0.00299059
0.00266339
0.00239365
0.00226728
0.00230377
0.00248283
0.00282736
0.00352734
0.00532972
0.00578782
0.00245511
0.00178712
0.0024719
0.00359725
0.00560704
0.00833157
0.0110482
0.0131434
0.0146389
0.0155245
0.0157468
0.0152007
0.0137838
0.0117152
0.00939786
0.00728984
0.00571056
0.00476641
0.00428411
0.00402501
0.00385291
0.00371828
0.00360777
0.00351742
0.00344134
0.00336662
0.00327057
0.00313313
0.00296781
0.00281629
0.00273977
0.00278496
0.00295678
0.00323672
0.00363425
0.00423584
0.00534275
0.00606833
0.00238881
0.00323878
0.00785527
0.00724741
0.00649392
0.00824763
0.0109838
0.0132836
0.0148237
0.0156199
0.0157969
0.0154524
0.0145553
0.0130671
0.011063
0.00884048
0.00684427
0.00546247
0.0047171
0.00433418
0.00409487
0.00391005
0.00375936
0.00364636
0.00357769
0.00355397
0.00356599
0.00359354
0.00360699
0.00358743
0.00356034
0.00355315
0.00359276
0.00369985
0.00387714
0.00410431
0.00434685
0.00456341
0.00469228
0.00463648
0.00231435
0.00309581
0.0059832
0.00773903
0.00989902
0.0109838
0.0121003
0.012746
0.0128943
0.0126349
0.0120302
0.0111052
0.00987811
0.00843203
0.00696546
0.00575361
0.00495014
0.00445309
0.00413419
0.00389558
0.00369593
0.00353059
0.00341058
0.00335004
0.0033588
0.00343716
0.00357216
0.00373508
0.00388118
0.00397122
0.00403958
0.00411969
0.0042334
0.00439264
0.00460074
0.00485405
0.0051415
0.00543505
0.00568458
0.0052679
0.00239558
0.00289489
0.0024801
0.00246702
0.00253754
0.00259495
0.00251343
0.00235822
0.00217779
0.00199746
0.00182754
0.00167162
0.00153311
0.00141769
0.00133178
0.00127745
0.00124957
0.00124202
0.00124336
0.00125081
0.00126471
0.00128594
0.00131465
0.00134968
0.00138885
0.00142964
0.00147007
0.00150914
0.00154719
0.00158533
0.00162422
0.00166665
0.00171534
0.00177225
0.00183832
0.00191291
0.0019927
0.00207259
0.0021584
0.00228695
0.00231215
)
;

boundaryField
{
    floor
    {
        type            compressible::alphatWallFunction;
        Prt             0.85;
        value           nonuniform List<scalar> 
36
(
0.000219917
0.000104492
0.000149972
0.000151181
0.000147587
0.000141537
0.000133396
0.000125219
0.000117631
0.000110744
0.000104529
9.89561e-05
9.39199e-05
8.93044e-05
8.4971e-05
8.07286e-05
7.62648e-05
7.2532e-05
6.49408e-05
6.494e-05
8.41527e-05
9.63904e-05
0.000106481
0.000127221
0.000166206
0.000159807
0.000219915
0.000239738
0.000229126
0.000219777
0.000104491
0.000219775
0.000186255
0.000266726
0.000232698
0.000265713
)
;
    }
    ceiling
    {
        type            compressible::alphatWallFunction;
        Prt             0.85;
        value           nonuniform List<scalar> 
43
(
0.000391195
0.00033883
0.00033717
0.000346148
0.000353445
0.000343131
0.000323363
0.000300189
0.000276811
0.00025456
0.000233938
0.000215441
0.000199893
0.000188238
0.000180838
0.000177034
0.000176004
0.000176193
0.000177212
0.000179106
0.000181999
0.00018591
0.000190683
0.000196014
0.000201561
0.000207048
0.000212337
0.000217469
0.000222598
0.000227808
0.000233464
0.000239932
0.000247466
0.000256187
0.000266003
0.000276473
0.000286916
0.000298022
0.000314471
0.000317861
0.000368229
0.000382049
0.000248582
)
;
    }
    sWall
    {
        type            compressible::alphatWallFunction;
        Prt             0.85;
        value           nonuniform List<scalar> 9(0.000507619 0.000477899 0.000438211 0.000402244 0.000403467 0.000366654 0.00043208 0.000414401 0.000389444);
    }
    nWall
    {
        type            compressible::alphatWallFunction;
        Prt             0.85;
        value           nonuniform List<scalar> 
14
(
0.00015936
0.000189943
0.000221982
0.000327701
0.000323941
0.000313868
0.000307274
0.000323535
0.000331312
0.000335172
0.000326358
0.000317101
0.000328049
0.000317178
)
;
    }
    sideWalls
    {
        type            empty;
    }
    glass1
    {
        type            compressible::alphatWallFunction;
        Prt             0.85;
        value           nonuniform List<scalar> 9(0.000143927 0.000209135 0.000262692 0.000313301 0.000362373 0.000409995 0.000458001 0.000498857 0.000511226);
    }
    glass2
    {
        type            compressible::alphatWallFunction;
        Prt             0.85;
        value           nonuniform List<scalar> 2(0.000282457 0.000320099);
    }
    sun
    {
        type            compressible::alphatWallFunction;
        Prt             0.85;
        value           nonuniform List<scalar> 
14
(
0.000147961
0.000157643
0.000157082
0.000163748
0.000169829
0.000175332
0.000180438
0.000185347
0.000190274
0.000195496
0.000200463
0.000205171
0.000209796
0.000214757
)
;
    }
    Table_master
    {
        type            compressible::alphatWallFunction;
        Prt             0.85;
        value           nonuniform List<scalar> 9(0.000191107 0.000166938 0.000148004 0.000132983 0.000120881 0.000111006 0.000102873 9.62035e-05 9.0966e-05);
    }
    Table_slave
    {
        type            compressible::alphatWallFunction;
        Prt             0.85;
        value           nonuniform List<scalar> 9(0.000216396 0.000197644 0.000182989 0.000170696 0.000160132 0.000150573 0.000141492 0.000132404 0.000122508);
    }
    inlet
    {
        type            fixedValue;
        value           uniform 1.94e-05;
    }
    outlet
    {
        type            zeroGradient;
    }
}


// ************************************************************************* //
