/*--------------------------------*- C++ -*----------------------------------*\
  =========                 |
  \\      /  F ield         | OpenFOAM: The Open Source CFD Toolbox
   \\    /   O peration     | Website:  https://openfoam.org
    \\  /    A nd           | Version:  6
     \\/     M anipulation  |
\*---------------------------------------------------------------------------*/
FoamFile
{
    version     2.0;
    format      ascii;
    class       volScalarField;
    location    "19900";
    object      nut;
}
// * * * * * * * * * * * * * * * * * * * * * * * * * * * * * * * * * * * * * //

dimensions      [0 2 -1 0 0 0 0];

internalField   nonuniform List<scalar> 
778
(
0.000894296
0.000953033
0.000949551
0.000990761
0.00102854
0.00106285
0.0010948
0.00112562
0.00115664
0.00118961
0.00122105
0.00125091
0.00128032
0.00131193
0.0013449
0.000632412
0.000905264
0.000912639
0.000890596
0.000853686
0.000804348
0.000755153
0.000709811
0.00066893
0.000632283
0.00059964
0.000570325
0.000543623
0.000518699
0.000494443
0.000469078
0.000448011
0.000405537
0.00131077
0.00258099
0.00226496
0.00261422
0.00286762
0.00313628
0.00340433
0.00365142
0.00385039
0.00396631
0.00403444
0.00400641
0.00380649
0.00331134
0.00241829
0.00147244
0.00140386
0.00134376
0.00113074
0.00192632
0.00267007
0.00310946
0.00313011
0.00247043
0.00211275
0.00186498
0.00167696
0.00152735
0.00139965
0.00128679
0.00118179
0.00107908
0.000986915
0.000907441
0.00102202
0.000514063
0.00166401
0.00360415
0.00267223
0.0038222
0.00427078
0.00465043
0.00499532
0.00529895
0.0055563
0.00575817
0.00595363
0.00615914
0.0063477
0.00645939
0.00638371
0.00584381
0.00427331
0.0016481
0.00142684
0.00305267
0.0042596
0.00483035
0.0043924
0.00115916
0.00100799
0.000891394
0.000800155
0.000727532
0.000668898
0.00062106
0.000582143
0.0005518
0.000606704
0.00071365
0.00112981
0.000584719
0.00200523
0.004858
0.00255726
0.00429822
0.00496246
0.00531798
0.00557948
0.00577307
0.0059177
0.00603507
0.00620165
0.00648276
0.00689255
0.00740734
0.00792423
0.00817766
0.00767657
0.00572336
0.00164156
0.00380501
0.00565796
0.00659797
0.00682921
0.00582931
0.00132002
0.00120062
0.00110824
0.00103144
0.00096599
0.0009072
0.000851761
0.000796693
0.000737214
0.000688854
0.000714046
0.001223
0.00064367
0.00234196
0.00643251
0.00258011
0.00408657
0.00510797
0.00541126
0.00552159
0.00552622
0.00547178
0.00542369
0.00549367
0.0057669
0.0062677
0.0069763
0.0077978
0.00855424
0.00903418
0.0090284
0.00810331
0.00824621
0.00843483
0.00846046
0.00828774
0.00775678
0.00617246
0.00533176
0.00475605
0.00428785
0.00382914
0.00338497
0.00295042
0.00251633
0.00207021
0.00159026
0.00121363
0.00121203
0.000958848
0.000767345
0.00101223
0.000967769
0.00267358
0.00819559
0.00303753
0.00344654
0.00489471
0.00523124
0.00520474
0.00501787
0.00475056
0.0045301
0.00452548
0.00481166
0.00538221
0.00620366
0.00716506
0.0081252
0.00894341
0.0094664
0.00956186
0.00946591
0.00929749
0.00905863
0.00875192
0.00836205
0.00779347
0.00724598
0.00674906
0.00626824
0.0057496
0.00519599
0.0046047
0.00397055
0.00328951
0.00256699
0.00191311
0.0014365
0.00111476
0.00125326
0.00217832
0.00115741
0.0030121
0.00982708
0.00404797
0.00282372
0.00439854
0.00494868
0.00488796
0.00458524
0.00414591
0.0037593
0.00374827
0.00410934
0.00476209
0.00567967
0.00672442
0.00775867
0.00864941
0.00928795
0.00958201
0.00955938
0.00934906
0.00903051
0.00866592
0.00830238
0.00795092
0.00762856
0.00732586
0.00700244
0.00661223
0.00614271
0.00558676
0.00494163
0.00420995
0.00341081
0.00263028
0.00190191
0.00140013
0.00125391
0.00220885
0.0013646
0.00330345
0.0110642
0.0055202
0.00268855
0.00348496
0.00438758
0.0045134
0.0042644
0.00374561
0.003219
0.00333855
0.00381589
0.00454532
0.00549064
0.0065749
0.00765739
0.0085816
0.0092245
0.00951703
0.00947938
0.0092081
0.00880779
0.00837731
0.00799563
0.00770145
0.0074913
0.00732751
0.00714931
0.00690164
0.006555
0.00609555
0.0055205
0.00483571
0.00406244
0.00325987
0.00244717
0.00171589
0.00113592
0.00321452
0.0017878
0.00339328
0.0104839
0.00683649
0.00347643
0.00236277
0.00289657
0.00338903
0.00343018
0.00302905
0.00294458
0.00325071
0.00381163
0.0045995
0.00560107
0.00673678
0.00785241
0.00877352
0.00936713
0.00957631
0.00943373
0.00904049
0.00852453
0.0080128
0.00760469
0.00734563
0.00721839
0.00716078
0.00709236
0.00695018
0.00670004
0.00632824
0.00583335
0.00522236
0.0045131
0.00373652
0.00286559
0.00170251
0.00137911
0.00494276
0.00202095
0.00332466
0.0084587
0.00706627
0.0047752
0.00315227
0.00244097
0.00231264
0.00242174
0.00262541
0.00294989
0.00340939
0.00403995
0.00489579
0.00597476
0.00717182
0.00830321
0.00917654
0.00965847
0.00970958
0.00938687
0.00881814
0.0081638
0.00758027
0.00718073
0.00699757
0.00697598
0.00701563
0.00701492
0.00692306
0.00672058
0.00640081
0.00596355
0.00541342
0.00475592
0.00396111
0.00281885
0.00136624
0.00225386
0.00508433
0.00207231
0.00311446
0.00723185
0.00683538
0.00546792
0.00420622
0.00338563
0.00298036
0.00288929
0.00305801
0.00336775
0.00381635
0.00448075
0.00542475
0.00660709
0.00786509
0.00897302
0.00972629
0.0100073
0.00981065
0.00923474
0.0084527
0.00767052
0.00707721
0.00677943
0.00674454
0.00684186
0.00694057
0.00694233
0.00684562
0.00664926
0.00634901
0.00594115
0.00542216
0.00476503
0.00379628
0.0022498
0.00142994
0.002846
0.00512024
0.00206895
0.00283619
0.00652144
0.00659557
0.00579056
0.00492419
0.00427273
0.0038896
0.00375273
0.00378807
0.00397491
0.00438565
0.00512652
0.00621718
0.00752684
0.00881243
0.00981047
0.0103259
0.0102837
0.00973758
0.00884847
0.00785831
0.00703274
0.00656591
0.00647038
0.00655028
0.00668011
0.00676645
0.00674319
0.00663112
0.00643176
0.00613808
0.00574022
0.00521902
0.00447282
0.00308379
0.00156297
0.00183675
0.00321642
0.00477157
0.00201523
0.00258655
0.00583361
0.00629867
0.00591746
0.00536103
0.00489409
0.00458391
0.00443278
0.00438781
0.00454604
0.00506603
0.00603344
0.00735349
0.00877246
0.00997664
0.0107018
0.0108072
0.0102969
0.00931552
0.00811215
0.00702676
0.00632984
0.0060188
0.00597371
0.00605864
0.00618057
0.006263
0.00624412
0.00613392
0.00593205
0.00563037
0.00521493
0.0046415
0.00370223
0.00218207
0.00150411
0.00221075
0.00338387
0.00423178
0.00194152
0.00259424
0.00578981
0.00643529
0.00598951
0.00553912
0.00517055
0.00490496
0.00473268
0.00472403
0.00510767
0.00602509
0.00739661
0.00894641
0.0103196
0.0112006
0.0114
0.0108923
0.00979356
0.00838551
0.00702533
0.00603838
0.00544846
0.00515887
0.0050791
0.00513088
0.00523925
0.00532783
0.00531871
0.00520193
0.00497452
0.0046337
0.00418157
0.00360781
0.00282831
0.00188727
0.00160182
0.00235734
0.00351032
0.00456828
0.00192528
0.00234164
0.00243548
0.00359193
0.0042189
0.00441214
0.00441443
0.00437092
0.00445014
0.00498603
0.00612952
0.00773781
0.0094748
0.0109648
0.0118939
0.0120739
0.0114634
0.010209
0.00854937
0.00696539
0.00572258
0.00487612
0.00437428
0.00412778
0.00403854
0.00403927
0.00408134
0.00410926
0.00405172
0.00387689
0.00358964
0.00321644
0.00281199
0.00243608
0.00211198
0.00184036
0.00181329
0.00246325
0.0037804
0.00478578
0.00206846
0.000807763
0.00146596
0.00226286
0.00290431
0.00364592
0.00490046
0.00674419
0.00878878
0.0106504
0.0120454
0.0127809
0.0127302
0.0118921
0.01035
0.00850685
0.00675247
0.00535048
0.00439468
0.00385137
0.0035681
0.00341347
0.00332014
0.00325731
0.0032028
0.00312692
0.0029936
0.00278631
0.00253373
0.0022919
0.00211774
0.00203591
0.00203866
0.00212076
0.00233898
0.00292505
0.0044507
0.00498184
0.00210609
0.00149727
0.00207874
0.0030362
0.00474586
0.00706522
0.00938866
0.011191
0.0124935
0.0132853
0.0135146
0.013085
0.011898
0.0101343
0.00813246
0.006285
0.00487958
0.00402643
0.00358506
0.00335366
0.00321592
0.00312557
0.00306333
0.00301554
0.00296586
0.002894
0.00278467
0.00264898
0.00251998
0.00243642
0.00242425
0.00248598
0.00261209
0.00280771
0.00312298
0.00370055
0.00510834
0.00539536
0.0021433
0.00275725
0.00666524
0.00612492
0.00548272
0.00698154
0.00932294
0.0113028
0.012641
0.0133479
0.0135269
0.0132653
0.012528
0.0112777
0.00957113
0.00764586
0.00586869
0.00460782
0.00390916
0.0035487
0.00334241
0.00321344
0.00313823
0.00310787
0.00311215
0.00313491
0.00315504
0.00315219
0.00311988
0.00308263
0.00306149
0.00307126
0.0031196
0.00320496
0.00332109
0.00346929
0.00367403
0.00399999
0.0045641
0.0048356
0.00204611
0.00263902
0.00510046
0.00658863
0.00841275
0.00934899
0.0103225
0.0108948
0.0110386
0.0108317
0.0103318
0.00956513
0.00854698
0.00733224
0.00606863
0.00497832
0.00419453
0.00367456
0.00334153
0.00311798
0.00297011
0.00288974
0.00287529
0.00292163
0.00301558
0.00313493
0.0032509
0.00333521
0.00337898
0.00341336
0.00345745
0.0035214
0.00360904
0.00372017
0.0038548
0.00401926
0.00422215
0.00445098
0.00487638
0.00528811
0.00199931
0.00247424
0.00211954
0.00210907
0.00217028
0.00222091
0.00215438
0.00202515
0.0018747
0.00172495
0.00158428
0.00145453
0.00133679
0.0012348
0.0011547
0.00110096
0.00107348
0.00106504
0.00106673
0.00107641
0.00109294
0.00111489
0.00114035
0.00116733
0.00119421
0.00122006
0.00124475
0.00126899
0.00129374
0.00131997
0.00134941
0.00138323
0.00142199
0.00146581
0.00151475
0.00156952
0.00163402
0.00172198
0.00184365
0.00199336
0.00192081
)
;

boundaryField
{
    floor
    {
        type            nutkWallFunction;
        Cmu             0.09;
        kappa           0.41;
        E               9.8;
        value           nonuniform List<scalar> 
36
(
0.00016058
7.63874e-05
0.000109509
0.000110387
0.000107763
0.000103351
9.74197e-05
9.14622e-05
8.59307e-05
8.0907e-05
7.63723e-05
7.23062e-05
6.86316e-05
6.52643e-05
6.2103e-05
5.90081e-05
5.57515e-05
5.30298e-05
4.74922e-05
4.74921e-05
6.15125e-05
7.04383e-05
7.77846e-05
9.29422e-05
0.000122138
0.000116913
0.00016058
0.000175014
0.00016727
0.000160449
7.63874e-05
0.000160449
0.000135986
0.000194672
0.000169868
0.000193943
)
;
    }
    ceiling
    {
        type            nutkWallFunction;
        Cmu             0.09;
        kappa           0.41;
        E               9.8;
        value           nonuniform List<scalar> 
43
(
0.000284377
0.00024631
0.000245179
0.000251801
0.000257268
0.000250106
0.000236107
0.000219678
0.000203177
0.000187532
0.000172967
0.00015963
0.000147979
0.000138758
0.000132534
0.000129334
0.00012835
0.000128542
0.000129664
0.000131583
0.000134135
0.000137095
0.000140228
0.000143347
0.00014634
0.000149193
0.000151984
0.000154826
0.000157826
0.000161183
0.000165029
0.000169425
0.000174383
0.000179898
0.000186029
0.000193166
0.000202808
0.000216125
0.000232493
0.000224738
0.000270418
0.000280445
0.000177599
)
;
    }
    sWall
    {
        type            nutkWallFunction;
        Cmu             0.09;
        kappa           0.41;
        E               9.8;
        value           nonuniform List<scalar> 9(0.00037389 0.000352084 0.000322982 0.000296625 0.000297438 0.000270507 0.000314367 0.000301919 0.000284478);
    }
    nWall
    {
        type            nutkWallFunction;
        Cmu             0.09;
        kappa           0.41;
        E               9.8;
        value           nonuniform List<scalar> 
14
(
0.00011692
0.000139088
0.000162829
0.000241282
0.00024087
0.00023499
0.000226971
0.000225346
0.00024094
0.000244952
0.000248953
0.000238383
0.000233261
0.000224773
)
;
    }
    sideWalls
    {
        type            empty;
    }
    glass1
    {
        type            nutkWallFunction;
        Cmu             0.09;
        kappa           0.41;
        E               9.8;
        value           nonuniform List<scalar> 9(0.000108246 0.000156881 0.000196735 0.000234347 0.000270789 0.000306137 0.000341751 0.00037207 0.000381372);
    }
    glass2
    {
        type            nutkWallFunction;
        Cmu             0.09;
        kappa           0.41;
        E               9.8;
        value           nonuniform List<scalar> 2(0.000210244 0.000235846);
    }
    sun
    {
        type            nutkWallFunction;
        Cmu             0.09;
        kappa           0.41;
        E               9.8;
        value           nonuniform List<scalar> 
14
(
0.000108205
0.000115177
0.000114765
0.00011963
0.000124069
0.000128085
0.000131811
0.000135392
0.000138987
0.000142795
0.000146416
0.000149846
0.000153213
0.000156824
)
;
    }
    Table_master
    {
        type            nutkWallFunction;
        Cmu             0.09;
        kappa           0.41;
        E               9.8;
        value           nonuniform List<scalar> 9(0.000139271 0.000121651 0.000107855 9.69132e-05 8.80992e-05 8.09068e-05 7.49828e-05 7.01229e-05 6.63063e-05);
    }
    Table_slave
    {
        type            nutkWallFunction;
        Cmu             0.09;
        kappa           0.41;
        E               9.8;
        value           nonuniform List<scalar> 9(0.000157735 0.000144055 0.000133365 0.000124403 0.000116704 0.000109737 0.000103119 9.64952e-05 8.92801e-05);
    }
    inlet
    {
        type            calculated;
        value           uniform 0.000167705;
    }
    outlet
    {
        type            calculated;
        value           nonuniform List<scalar> 2(0.00275725 0.00666524);
    }
}


// ************************************************************************* //
