/*--------------------------------*- C++ -*----------------------------------*\
  =========                 |
  \\      /  F ield         | OpenFOAM: The Open Source CFD Toolbox
   \\    /   O peration     | Website:  https://openfoam.org
    \\  /    A nd           | Version:  6
     \\/     M anipulation  |
\*---------------------------------------------------------------------------*/
FoamFile
{
    version     2.0;
    format      ascii;
    class       volScalarField;
    location    "420";
    object      epsilon;
}
// * * * * * * * * * * * * * * * * * * * * * * * * * * * * * * * * * * * * * //

dimensions      [0 2 -3 0 0 0 0];

internalField   nonuniform List<scalar> 
458
(
0.000530289
0.000691685
0.000749287
0.000868112
0.000991288
0.0011236
0.00127673
0.00142498
0.00154371
0.00159957
0.00155991
0.00139044
0.000958953
0.000581763
0.000352058
5.14734e-05
8.31752e-05
0.000121357
0.000137533
0.000130781
0.000107784
8.58959e-05
6.89715e-05
5.61783e-05
4.63954e-05
3.88118e-05
3.28839e-05
2.81322e-05
2.41997e-05
2.08064e-05
1.77156e-05
1.59144e-05
1.23223e-05
0.00125425
0.00181901
0.000635329
0.00061963
0.00064817
0.000708683
0.000811764
0.00093995
0.001057
0.00111584
0.00108491
0.000968943
0.000748653
0.000557199
0.000419495
0.000680963
0.000441251
0.000260614
4.90648e-05
8.91623e-05
0.000108588
0.000110544
0.00010752
0.000110303
8.75314e-05
6.72748e-05
5.19958e-05
4.06695e-05
3.22624e-05
2.59919e-05
2.12238e-05
1.76073e-05
1.53447e-05
1.44627e-05
4.0106e-05
2.67542e-05
0.00219611
0.00424569
0.000716615
0.000561775
0.000585462
0.000662764
0.000787901
0.000942728
0.00107341
0.00113644
0.0011131
0.00100699
0.000809273
0.000612729
0.000457796
0.000381143
0.000340225
0.000365725
0.000147279
0.000151024
0.000138233
0.000125861
0.000120725
0.000248522
0.000165415
0.000112686
7.94992e-05
5.81726e-05
4.40686e-05
3.45271e-05
2.79728e-05
2.36023e-05
1.84099e-05
1.65971e-05
8.55492e-05
4.34727e-05
0.00344417
0.00863236
0.00102339
0.000536831
0.000545979
0.000643062
0.000809529
0.00101228
0.0011548
0.00121682
0.00119431
0.00107548
0.000860374
0.000639262
0.000465503
0.000355404
0.000301591
0.000330047
0.000487544
0.000361119
0.000247523
0.000188953
0.000155409
0.00014164
0.000346457
0.000265754
0.000218553
0.000186958
0.000162022
0.000139963
0.000120692
0.000102254
8.31875e-05
5.0076e-05
3.27979e-05
0.000159626
6.42175e-05
0.00511435
0.0154272
0.00187099
0.000559712
0.000508472
0.000637184
0.000916254
0.0012021
0.00134754
0.00139522
0.00135235
0.00119106
0.000927103
0.000654076
0.000452406
0.000333154
0.000271548
0.000271521
0.000317174
0.000274756
0.000233641
0.000200767
0.000170576
0.000143802
0.000135092
0.00012491
0.000117845
0.000111222
0.000103229
9.35259e-05
8.34806e-05
7.36423e-05
6.42877e-05
5.16304e-05
4.0223e-05
0.000100877
0.000156342
0.000153086
0.000176737
0.000222926
0.00741269
0.0232056
0.00413454
0.000848911
0.000549821
0.000668516
0.00123768
0.00156705
0.00167637
0.00167954
0.00158886
0.0013648
0.00101658
0.000663858
0.000416706
0.000287374
0.000239188
0.000243849
0.000265253
0.000264382
0.000247105
0.00021748
0.000182565
0.000149914
0.000129257
0.000121548
0.00012007
0.000118697
0.000114416
0.000105724
9.25486e-05
7.88128e-05
6.63299e-05
5.50755e-05
4.79629e-05
6.99657e-05
0.000118058
0.000139617
0.000253981
0.000250104
0.0102786
0.0279662
0.0089271
0.00275978
0.00149341
0.00153354
0.0020401
0.00219116
0.00217873
0.00208383
0.001906
0.00158016
0.00111303
0.000661167
0.000368059
0.000240705
0.000216078
0.000236968
0.000263999
0.000269036
0.000249589
0.000215604
0.000179007
0.000149142
0.000133376
0.000131866
0.000137063
0.000143151
0.000147372
0.000147168
0.000137712
0.000121527
0.000105971
9.29903e-05
8.76917e-05
0.000101661
0.000146537
0.000224383
0.000423018
0.00043025
0.011107
0.0320462
0.0169245
0.00953773
0.00584047
0.00445086
0.00369781
0.00323338
0.00289475
0.00260256
0.00227994
0.00179893
0.00116578
0.000604823
0.000300583
0.000218932
0.000215924
0.000238742
0.0002573
0.00025209
0.000226215
0.000193073
0.000164499
0.000146917
0.000142182
0.000147913
0.000159997
0.000176309
0.000196536
0.000220533
0.000246923
0.000264886
0.000279713
0.000313215
0.000380493
0.000573185
0.00103006
0.00184213
0.00567265
0.0015798
0.0104935
0.0185351
0.0143931
0.0107786
0.00808912
0.0062839
0.00506911
0.00424716
0.00362109
0.00311528
0.00261742
0.00190344
0.00103456
0.000456274
0.000270198
0.000226644
0.000226689
0.000235845
0.000236217
0.000221842
0.000198483
0.000175221
0.000158956
0.000151981
0.00015357
0.000162043
0.000176486
0.00019763
0.000227653
0.000269828
0.000328441
0.000408231
0.000516925
0.000677503
0.000909735
0.00121486
0.00155221
0.00184421
0.00207379
0.00122846
0.00439911
0.00584363
0.00624624
0.00606085
0.00554527
0.00478182
0.00393004
0.00324434
0.00257627
0.0014458
0.000705025
0.000394779
0.000296102
0.00026921
0.000264546
0.00026351
0.000257547
0.00024455
0.000228654
0.000214249
0.000203922
0.00019808
0.00019622
0.000197964
0.000203554
0.000214196
0.000232274
0.00026166
0.000308352
0.000378788
0.000479805
0.000619414
0.000798393
0.00099135
0.00113333
0.0011455
0.000991609
0.000638592
0.00357981
0.0107431
0.00987225
0.00815811
0.0063034
0.00426537
0.00253061
0.00150473
0.000957119
0.000627707
0.000480595
0.000425992
0.000411146
0.00041097
0.00041346
0.000412398
0.000404354
0.000388823
0.000368015
0.000347541
0.000329045
0.000312862
0.000299375
0.000289448
0.000284517
0.000286451
0.000297495
0.000320458
0.000359662
0.000420701
0.000510038
0.000633649
0.000791687
0.000972917
0.00111899
0.00124491
0.000842291
0.00066427
0.00408614
0.00434527
0.00460959
0.00646003
0.00483962
0.00278126
0.00147753
0.00105642
0.000797006
0.000653734
0.000567805
0.000490533
0.000431956
0.000393864
0.000368896
0.000348512
0.000327339
0.00030331
0.000278208
0.00025657
0.000240909
0.000230008
0.000223546
0.000221034
0.000222276
0.000227441
0.000237027
0.000251892
0.000273474
0.000304337
0.000345142
0.000398003
0.000465365
0.000550411
0.000656344
0.000807298
0.000874689
0.000821508
0.000663182
0.00052233
)
;

boundaryField
{
    floor
    {
        Cmu             0.09;
        kappa           0.41;
        E               9.8;
        type            epsilonWallFunction;
        value           nonuniform List<scalar> 
36
(
0.000352058
5.14734e-05
8.31752e-05
0.000121357
0.000137533
0.000130781
0.000107784
8.58959e-05
6.89715e-05
5.61783e-05
4.63954e-05
3.88118e-05
3.28839e-05
2.81322e-05
2.41997e-05
2.08064e-05
1.77156e-05
1.59144e-05
1.23223e-05
1.23223e-05
2.67542e-05
4.34727e-05
6.42175e-05
0.000153086
0.000176737
0.000222926
0.000352058
0.000680963
0.000441251
0.000260614
5.14734e-05
0.000260614
4.90648e-05
0.000365725
0.000147279
0.000487544
)
;
    }
    ceiling
    {
        Cmu             0.09;
        kappa           0.41;
        E               9.8;
        type            epsilonWallFunction;
        value           nonuniform List<scalar> 
43
(
0.00408614
0.00434527
0.00460959
0.00646003
0.00483962
0.00278126
0.00147753
0.00105642
0.000797006
0.000653734
0.000567805
0.000490533
0.000431956
0.000393864
0.000368896
0.000348512
0.000327339
0.00030331
0.000278208
0.00025657
0.000240909
0.000230008
0.000223546
0.000221034
0.000222276
0.000227441
0.000237027
0.000251892
0.000273474
0.000304337
0.000345142
0.000398003
0.000465365
0.000550411
0.000656344
0.000807298
0.000874689
0.000821508
0.000663182
0.00052233
0.0104935
0.0185351
0.00357981
)
;
    }
    sWall
    {
        Cmu             0.09;
        kappa           0.41;
        E               9.8;
        type            epsilonWallFunction;
        value           uniform 0.00408614;
    }
    nWall
    {
        Cmu             0.09;
        kappa           0.41;
        E               9.8;
        type            epsilonWallFunction;
        value           nonuniform List<scalar> 6(0.000222926 0.000250104 0.00043025 0.000638592 0.00066427 0.00052233);
    }
    sideWalls
    {
        type            empty;
    }
    glass1
    {
        Cmu             0.09;
        kappa           0.41;
        E               9.8;
        type            epsilonWallFunction;
        value           nonuniform List<scalar> 9(0.000530289 0.00125425 0.00219611 0.00344417 0.00511435 0.00741269 0.0102786 0.011107 0.0104935);
    }
    glass2
    {
        Cmu             0.09;
        kappa           0.41;
        E               9.8;
        type            epsilonWallFunction;
        value           nonuniform List<scalar> 2(0.0015798 0.00122846);
    }
    sun
    {
        Cmu             0.09;
        kappa           0.41;
        E               9.8;
        type            epsilonWallFunction;
        value           nonuniform List<scalar> 
14
(
0.000530289
0.000691685
0.000749287
0.000868112
0.000991288
0.0011236
0.00127673
0.00142498
0.00154371
0.00159957
0.00155991
0.00139044
0.000958953
0.000581763
)
;
    }
    Table_master
    {
        Cmu             0.09;
        kappa           0.41;
        E               9.8;
        type            epsilonWallFunction;
        value           nonuniform List<scalar> 9(0.000248522 0.000165415 0.000112686 7.94992e-05 5.81726e-05 4.40686e-05 3.45271e-05 2.79728e-05 2.36023e-05);
    }
    Table_slave
    {
        Cmu             0.09;
        kappa           0.41;
        E               9.8;
        type            epsilonWallFunction;
        value           nonuniform List<scalar> 9(0.000346457 0.000265754 0.000218553 0.000186958 0.000162022 0.000139963 0.000120692 0.000102254 8.31875e-05);
    }
    inlet
    {
        type            turbulentMixingLengthDissipationRateInlet;
        mixingLength    0.01;
        phi             phi;
        k               k;
        value           uniform 0.000471671;
    }
    outlet
    {
        type            zeroGradient;
    }
}


// ************************************************************************* //
