/*--------------------------------*- C++ -*----------------------------------*=========                 |
  \      /  F ield         | OpenFOAM: The Open Source CFD Toolbox
   \    /   O peration     | Website:  https://openfoam.org
    \  /    A nd           | Version:  6
     \/     M anipulation  |
\*---------------------------------------------------------------------------*/
FoamFile
{
    version     2.0;
    format      ascii;
    class       volScalarField;
    location    "420";
    object      PMV;
}
// * * * * * * * * * * * * * * * * * * * * * * * * * * * * * * * * * * * * * //

dimensions      [0 0 0 0 0 0 0];

internalField   nonuniform List<scalar> 
458
(
1.3259640398106087
1.0800361534272183
1.0469247058759537
1.017565284901177
0.9997863267934258
0.9914618975289778
0.9945325452631973
1.0095060217683038
1.0397423919068796
1.0890399301145892
1.1609733451928408
1.2278348596263189
1.2435916845672155
1.251708521082422
1.2636446392643739
1.3839293248969131
1.3700903032201988
1.3662724780863906
1.37343084259086
1.3786801517256349
1.3824977458067533
1.3778710650011843
1.3739141581743228
1.3752354219056837
1.3775037769909475
1.3803941792056442
1.3835676163810127
1.3882990041106706
1.3951146959078233
1.4062859942085628
1.4168527340138939
1.4221008600657228
1.4364131518499585
1.2585706870110982
1.0923921264255199
1.0799448873281592
1.0516153860597715
1.0350066684825439
1.0269069947424387
1.0285233919051175
1.0369668158668537
1.0513832137439483
1.076523343420804
1.117593894525399
1.1803009236825222
1.2412043382257687
1.251708521082422
1.2514570137626024
1.2118455379586186
1.214712083208401
1.2393528553203303
1.339981885895723
1.3562503580606105
1.3562503580606105
1.3643635393931917
1.366835616526646
1.367074580986822
1.367599321070012
1.3691712698081162
1.3703329885236242
1.3710681009653336
1.3719738470641478
1.373245768163985
1.3752903497031863
1.3784006035559013
1.387438674570033
1.3972902299813
1.4044474791451018
1.3895393515797512
1.2897453678113262
1.0843101889649434
1.1134344458951446
1.0987752814964815
1.0922889729422014
1.0889874823994208
1.088779043046708
1.084756425380249
1.06992457425263
1.0580509437588022
1.070064931684665
1.1216211865371828
1.2157877048275516
1.2583928078102655
1.2645995073429737
1.2674462631701178
1.2631004750803285
1.2483191832684033
1.2488284861751102
1.3098668360397245
1.318333859261654
1.3277065887069264
1.3395707962792387
1.3444020783766577
1.3670982641445752
1.3829749399738929
1.383452133004422
1.3839293248969131
1.3848837052621426
1.3853608937319664
1.3863152672388293
1.3872696361589925
1.3906098910922793
1.3944272556896993
1.3881249581448751
1.3167585857731963
1.3633449557071695
1.078350014614426
1.1377601261385986
1.1494547732006657
1.1675100238711238
1.1793460496078425
1.181438014018773
1.1541767837970172
1.0940357440551527
1.0403739107004035
1.0306927774295747
1.0806618717968164
1.1743169126538717
1.265549782721073
1.2789221370931396
1.279876952523738
1.2482836691805057
1.2238258129258035
1.1765753007200184
1.2416516776797821
1.2789295453876754
1.3068123556434361
1.3388157926643849
1.3750894994109355
1.4027324798286702
1.3980246773918386
1.3933638666630188
1.3937217385089837
1.3959394663986655
1.39994799839735
1.4073806718894184
1.4212939308429886
1.4452446634792933
1.4434362793626578
1.4268717517656822
1.3690979969686685
1.2728397627374568
1.4573844356946402
1.0868696203609787
1.1554469521759363
1.1948777217245694
1.2514505346870008
1.2996782588342184
1.3062194661918773
1.2266322641815708
1.1131352865601345
1.023781945895319
1.000774400789496
1.054072531902919
1.1513174497382883
1.2540040297704107
1.299449910064431
1.300882019573709
1.283341999957576
1.2555642902136344
1.2551374165854783
1.2727172845376846
1.3054147088908994
1.3474070399473697
1.3914728031388044
1.433554079069069
1.464557197903917
1.4764375311445137
1.4789770668270863
1.4797294320723333
1.4795643357454302
1.4775178775336968
1.4758745784119183
1.4758526530519782
1.4750292155367168
1.4590309544946254
1.4307512162884997
1.3549412446492344
1.3538177042191193
1.3542067807593696
1.4395822133676213
1.3188640232844686
1.5549521702054039
1.1171602542283554
1.1874142528785054
1.2275023488226777
1.3146714234939414
1.388701180913892
1.41106194571324
1.2517211315146681
1.109135546011705
1.0059249656919136
0.9802647200170916
1.0389774435663686
1.1488513783794203
1.2688833942099158
1.3290451473346674
1.3338182285553737
1.3314317002685618
1.3328636202091109
1.3415505368122234
1.3636442746570923
1.3997086167470552
1.4359360941242332
1.4650341746826872
1.4893581022439224
1.5074793224317469
1.5203535775595882
1.5284589979079792
1.533703432988697
1.5360872017622111
1.5351336991787776
1.5308428564476013
1.5241679507345687
1.5080064442294576
1.4774648364526974
1.438926343718551
1.3673488701995733
1.3596514719998738
1.3537509344428835
1.3794173180259368
1.3875219876122566
1.647206059880883
1.2046692326807753
1.307689535852331
1.2873408269060491
1.3446002781202433
1.4254404975492831
1.3460062009817746
1.2203160859224607
1.076437040128249
0.9750772031612042
0.9615499635963692
1.041030307406381
1.175369016972992
1.319960923619544
1.3700903032201988
1.3801117579729196
1.3801117579729196
1.385838081058005
1.4049246195268121
1.4325966536833712
1.4621722931083072
1.490311904741291
1.514631827399416
1.533703432988697
1.5465752925282046
1.5546791687475403
1.559445923773752
1.5608759165669297
1.5603992540387013
1.5570625678125525
1.5503889425253818
1.5413313479015047
1.5298893179002655
1.513477866990632
1.468341041284272
1.4049989033928054
1.3751539031154842
1.3541807655355858
1.326775190018842
1.4318819580409685
1.7878105004984923
1.5763951107501701
1.5189285439836888
1.4036495392290236
1.3825467214741778
1.3692195419207405
1.290580960482424
1.141603632195088
0.9914704885199096
0.9154123713948464
0.9454421770560726
1.0733432325915784
1.2494358495475113
1.3839293248969131
1.4230550485139872
1.4345049131431518
1.438321369705525
1.4488161907790618
1.469803865363028
1.4950808279798935
1.5198767737445669
1.5413313479015047
1.5575392424603438
1.5689789120623463
1.575651583583614
1.5785111925300312
1.579464381081229
1.5780345955440198
1.575174975798421
1.5708854252501319
1.5646891540513261
1.5556325335316379
1.5451451459306271
1.5327499140057108
1.5184463527830652
1.5031876524366454
1.4934688998926382
1.4656223172965797
1.3872570301903053
1.3014870775479799
1.9968503147392556
1.8505626408114617
1.6894205275280754
1.5484062089071562
1.4565639917638644
1.381109431937843
1.170969887736895
0.9464093979319749
0.8217433092424292
0.8342045869413837
0.9656156299538475
1.1832460901328936
1.3748624857301617
1.4512012872957698
1.4793428211644943
1.491265701306391
1.4998496012582467
1.5127245270106346
1.5308428564476013
1.5494355401848594
1.5661190892317622
1.578987787709737
1.5842019298936276
1.580560733127602
1.5751537496898274
1.5691482047918806
1.5613195783774638
1.5526132441515172
1.542692495139419
1.531020429079206
1.5176023544645811
1.5029048797039337
1.4886246729789945
1.4714790529077006
1.451846810210813
1.4335100718055158
1.4220597258289795
1.4177943914880258
1.4077676340145044
1.3771835014921308
-1.6807736042383576
-0.7907477626247867
-0.24806618280274256
-0.06115112002583221
0.09774703259909112
0.30459191503280686
0.5703836916941991
0.8653450068204454
1.1743358206549603
1.3829749399738929
1.4733376291969167
1.4862629170959185
1.4958331349105205
1.5051226400166091
1.5162621397389724
1.530361634669404
1.5434104765662395
1.5527625292846288
1.5578682698572575
1.558597920311265
1.555969779397278
1.5515548578538307
1.5452421176842823
1.5377996668174214
1.5296679905274606
1.5205855053308799
1.5124599327205839
1.5049344450195319
1.4990014024690728
1.4948300162866741
1.491625942007191
1.4893585123997817
1.4870599444546282
1.4874580027275246
1.498089389439984
1.5348951795666852
1.6032398646014225
1.4515627523529717
-1.691335756717651
-0.6117297918944596
-0.0295299871515983
0.287970578191565
0.5166158671140558
0.7917252664288144
1.0859936448918537
1.3070877333048074
1.3892798479218016
1.4374064326240836
1.465760459484535
1.4824711015560479
1.4941754867842594
1.5034936456702244
1.5123094463385172
1.5204146290522598
1.5275626927849946
1.5323985664419024
1.5353895125842512
1.5357614465730998
1.5350087710576295
1.532754880027134
1.5296065375625398
1.5261947446541146
1.5226728043190463
1.5197093895186977
1.5170300561722094
1.5155926400751334
1.5153534064344156
1.5180969629323475
1.5244220055586506
1.5354829281419609
1.5476611467253716
1.557522554690517
1.5682948224621822
1.6039981667954335
1.5509676611035053
1.4939422474075386
-1.1273811977210602
-1.1277166198378459
-1.003791748442643
-0.1939204234248152
0.40089135150172356
0.8276396409891792
1.1227782209711183
1.2650511594892484
1.3516546021856757
1.4046076761377218
1.4382425658161653
1.4622196708990802
1.477443892210775
1.4863513650734264
1.4920004865694692
1.4960165086979917
1.4982237223733315
1.4984029717177896
1.4967916244809156
1.4942362329918435
1.4912772493532673
1.4881753723512128
1.4851061925933977
1.4826629602943053
1.4804281268405985
1.4795811871437128
1.4793307296922387
1.4805424004318333
1.4842399997991857
1.490125418456748
1.4992781900839252
1.5133561917262797
1.536406467857679
1.5762601197413768
1.6318768130367733
1.6375932531899828
1.6093375705653516
1.5511438246915474
1.5011326488009455
1.5141515979227895
)
;

boundaryField
{
    ".*"
    {
        type            zeroGradient;
    }
}


// ************************************************************************* //
