/*--------------------------------*- C++ -*----------------------------------*=========                 |
  \      /  F ield         | OpenFOAM: The Open Source CFD Toolbox
   \    /   O peration     | Website:  https://openfoam.org
    \  /    A nd           | Version:  6
     \/     M anipulation  |
\*---------------------------------------------------------------------------*/
FoamFile
{
    version     2.0;
    format      ascii;
    class       volScalarField;
    location    "420";
    object      PPD;
}
// * * * * * * * * * * * * * * * * * * * * * * * * * * * * * * * * * * * * * //

dimensions      [0 0 0 0 0 0 0];

internalField   nonuniform List<scalar> 
458
(
41.605940725380144
29.605239760124988
28.134034157362336
26.862720534698255
26.1084392295039
25.759379375901872
25.887830693417754
26.51932905094091
27.82010482712009
30.011975012594377
33.35912473322203
36.61438192256036
37.39987114161063
37.8070524605807
38.40888693880117
44.651131946046895
43.91866203220956
43.71715748355723
44.09517918583293
44.37293412911056
44.57521657019927
44.33009355948245
44.12073357883856
44.19061279251256
44.31064945951035
44.463725938747196
44.63194777524234
44.88305279021589
45.24538599608346
45.84076398814484
46.40553805576116
46.6865938502637
47.454811286736295
38.15261246932938
30.164123018608095
29.601131350603893
28.340067584930367
27.614142276760973
27.26378670003318
27.33351160763253
27.699291959746304
28.329850951896105
29.447318113423904
31.32021547413555
34.28660210046647
37.280436420046996
37.8070524605807
37.794410046500815
35.824197289744504
35.965338464007246
37.18791324186048
42.3366343404972
43.18940392606969
43.18940392606969
43.61649827972075
43.74686411677064
43.759471607939325
43.787159751776635
43.87013266500987
43.931479381487044
43.97031022504942
44.01816704019346
44.08539476320226
44.19351845206868
44.35813104014329
44.83736708621027
45.361188748503565
45.74265601889067
44.94893866526136
39.73709761905073
29.797963574103463
31.127933966664628
30.454905128237428
30.159435367023406
30.009597615711314
30.000150228979905
29.81812178241158
29.151835017474184
28.624033197204938
29.15810404704095
31.50693514002444
36.018358625248496
38.14363988807819
38.45718708581656
38.60131861688481
38.38137158397522
37.63681880253048
37.662380260554215
40.77182510257381
41.209885194188296
41.696558357702266
42.315150674091704
42.56784077303503
43.76072115793033
44.600518118647
44.6258232469149
44.651131946046895
44.70176002105438
44.72707937898611
44.77772869080762
44.82839207064032
45.00582364534707
45.20880855494654
44.87380957289727
41.128269582792186
43.56281392909283
29.52938395998588
32.26053458673444
32.81186593724259
33.67152457141624
34.24051417807662
34.34152050572598
33.035710389853406
30.238863992123683
27.847632341896897
27.42724183714762
29.633414752269914
33.998230871265335
38.50527736073113
39.18434889251287
39.23300094024895
37.63503663229015
36.41559455850772
34.10693642002106
37.30280462776391
39.1847262942097
40.61417307927466
42.275702508460526
44.182893791627514
45.65118246442048
45.40029893798445
45.15224157819712
45.17127666469612
45.28927987528825
45.50275565329513
45.899201450913864
46.64335683118878
47.93003506048948
47.83265592602572
46.94239625163917
43.86626412884824
38.874937410167384
48.584626642021114
29.913676659425207
33.09604170696116
34.993528780558265
37.7940843869367
40.246755948789705
40.58359561762357
36.55470557113756
31.114126772266104
27.129258748855563
26.150045951068876
28.44831217388321
32.90008123175174
37.922514676551
40.23501428966649
40.3086723990079
39.409741797802376
38.00107123577158
37.979572694751525
38.86871607913136
40.542103676486214
42.72523374521472
45.05168879690196
47.30115345965795
48.97206807437152
49.61479337842838
49.75233221721538
49.79308918859652
49.78414525457716
49.67329775843235
49.58431125463617
49.58312411618507
49.53854225591041
48.673521808900695
47.150609617682285
43.12060019912397
43.06157462222443
43.08201227919918
47.62523868129925
41.23736496397094
53.88323961161421
31.300142421349634
34.630790465031254
36.59787781662465
41.02021357137402
44.9044133603903
46.095841967622015
37.807686386658055
30.929813286150832
26.367528841505163
25.294036221785433
27.7867807045904
32.78331301759704
38.674156525324946
41.76620921919166
42.014866321638294
41.89048137062751
41.965098871713394
42.418642555243395
43.57858761745078
45.490000665764974
47.4291657496523
48.9978490507847
50.315058674189856
51.29903659253974
51.99914706786265
52.440265293576225
52.72579235928374
52.85559817853507
52.803674437326684
52.57004195544587
52.20670680708128
51.327686721464275
49.67042519207133
47.58995766734093
43.77394400789212
43.36830268424677
43.0580675760145
44.41197587348956
44.84179071754804
58.89923228479504
35.471871969577066
40.65942653065431
39.61405972707686
42.57821674588249
46.865626410959436
42.651839762034335
36.24192735792221
29.443443704274927
25.080083372852528
24.527076534356937
27.876259693880698
34.04885381099429
41.294238838593266
43.91866203220956
44.448762838377384
44.448762838377384
44.752402271898745
45.76811288238697
47.24971897487995
48.84319293414815
50.36679957107488
51.68790379890539
52.72579235928374
53.426858923037685
53.868365300804896
54.12808337689282
54.20599796317296
54.1800265195635
53.998224523155315
53.634621978521594
53.14120846719078
52.51812953398624
51.62514921972052
49.17664327656997
45.77207643881684
44.18630057196975
43.08064564879157
41.64811520796676
47.211331388473155
66.37834121218145
55.05151428149735
51.92161773028342
45.700090776598735
44.577813165452916
43.87268130500174
39.77988531353638
32.4412502734303
25.75973825234425
22.695122597706657
23.87790808671943
29.30472620597149
37.69287204445014
44.651131946046895
46.73773201791948
47.35224448736262
47.557418761769846
48.122459515783525
49.25576497855366
50.62558834297619
51.97320554306809
53.14120846719078
54.02419636560876
54.64748868255955
55.01101094531387
55.16678220956426
55.2187021407834
55.14082150039649
54.98504750702698
54.7513590485324
54.41376505050167
53.92030894957263
53.34895106507394
52.67387345126444
51.895385806467075
51.065829220204165
50.538099701513886
49.0296414306439
44.82772278050923
40.33980626477771
76.60813083342573
69.58972904158331
61.175005584302205
53.526602904102305
48.540340786457435
44.50162687513075
33.83740914604576
23.916600285502327
19.241598857407936
19.680074807990565
24.692536477039752
34.42892530640759
44.17088593701658
48.25103627281772
49.77214524303637
50.41854619472484
50.884510183279936
51.584184369561086
52.57004195544587
53.58268020806339
54.491674964740305
55.19274242658175
55.47672890267873
55.278418092753206
54.98389119703588
54.65671219201003
54.23017132520546
53.755806249770444
53.21534911953976
52.57970963114318
51.84947329555746
51.050466929773854
50.27527652163069
49.34639543352664
48.28584539340766
47.298789079958
46.684389587941425
46.455940826207886
45.91986275935881
44.29369599441266
60.71045349421394
18.179306480495896
6.277230974300579
5.077421618562639
5.197866741267092
6.928073155078621
11.814720798216214
20.804143466762582
33.99914035087464
44.600518118647
49.446974981083486
50.147196876012664
50.66642592802583
51.170963550123915
51.77657323742676
52.543843011955694
53.254458326818565
53.76393974320933
54.04212361886543
54.08187915707726
53.93868374811802
53.69814276466703
53.35423355006204
52.94885715750634
52.50608043845916
52.01176590828149
51.569796969665006
51.160737409767556
50.83844712067295
50.61197427501917
50.4380920034463
50.31508092259167
50.19041590025963
50.21200237322186
50.78892319785898
52.79068600746724
56.512990642161384
48.2705273615123
61.277773952569966
12.84879384739655
5.018051957626952
6.722706206851129
10.580848151329462
18.212187570895935
29.87404784849963
40.62837791813155
44.935152148929575
47.508216170396985
49.03710923114859
49.94164652488004
50.57644823976646
51.08245351028542
51.56161436741759
52.00246876750656
52.39147513347391
52.65474325983853
52.8176047443734
52.83785867524502
52.79687154052213
52.6741438438503
52.50273495555633
52.317016129106726
52.12534182765367
51.96409885809283
51.81834260724434
51.740159099530686
51.727147629372645
51.876379060045906
52.22053310409096
52.82269172387545
53.48601317238753
54.02328712339622
54.61021746670116
56.554239383720144
53.66615126097488
50.563789307304496
31.7749196597357
31.790558727775604
26.27733198439138
5.7797280354307645
8.348616626472136
19.448262131493664
31.560678549864818
38.4800409101436
42.94800051337194
45.75120264627742
47.553180549663885
48.84575262277281
49.669290912712604
50.15199277238652
50.45841480407769
50.676380561876286
50.79621740594596
50.80595071799056
50.71846078366162
50.579745261336605
50.419172751259005
50.25090767953978
50.084481122095816
49.952044483936575
49.83094259641623
49.78505815327355
49.77149022784993
49.8371339846652
50.0375237688393
50.356682776714806
50.85347814353775
51.618532632124925
52.87298455124476
55.04416076343925
58.068684365978555
58.378615905821434
56.84461116153604
53.675748927685106
50.954196409739396
51.66178728102805
)
;

boundaryField
{
    ".*"
    {
        type            zeroGradient;
    }
}


// ************************************************************************* //
