/*--------------------------------*- C++ -*----------------------------------*\
  =========                 |
  \\      /  F ield         | OpenFOAM: The Open Source CFD Toolbox
   \\    /   O peration     | Website:  https://openfoam.org
    \\  /    A nd           | Version:  6
     \\/     M anipulation  |
\*---------------------------------------------------------------------------*/
FoamFile
{
    version     2.0;
    format      ascii;
    class       volScalarField;
    location    "37099.9999985711402";
    object      nut;
}
// * * * * * * * * * * * * * * * * * * * * * * * * * * * * * * * * * * * * * //

dimensions      [0 2 -1 0 0 0 0];

internalField   nonuniform List<scalar> 
778
(
0.000894303
0.000953067
0.000949612
0.000990841
0.00102863
0.00106294
0.00109489
0.00112568
0.00115667
0.00118961
0.001221
0.0012508
0.00128014
0.0013117
0.00134463
0.000632301
0.000905151
0.00091241
0.000890277
0.000853316
0.000803998
0.000754875
0.00070961
0.000668781
0.000632157
0.000599518
0.000570202
0.0005435
0.000518579
0.000494329
0.000468973
0.000447935
0.000405489
0.00131077
0.00258113
0.00226503
0.00261433
0.00286787
0.0031367
0.00340488
0.00365201
0.00385091
0.00396661
0.00403455
0.0040063
0.00380621
0.00331101
0.00241803
0.00147208
0.0014035
0.00134346
0.00113113
0.00192649
0.00266972
0.0031084
0.00312865
0.00246962
0.00211204
0.00186422
0.00167624
0.0015268
0.0013993
0.00128654
0.00118159
0.00107891
0.000986763
0.000907302
0.00102229
0.000514051
0.00166401
0.00360438
0.00267234
0.00382223
0.00427099
0.00465086
0.00499591
0.00529959
0.0055568
0.00575831
0.00595344
0.0061585
0.00634658
0.00645796
0.00638244
0.00584319
0.00427355
0.00164789
0.00142701
0.00305312
0.00426022
0.00483051
0.00439234
0.00115897
0.00100769
0.000891029
0.000799787
0.000727201
0.000668623
0.000620841
0.00058197
0.000551658
0.000606586
0.000713628
0.00113069
0.000584789
0.00200522
0.00485837
0.00255741
0.00429818
0.00496255
0.00531827
0.00557995
0.00577361
0.00591816
0.0060352
0.00620145
0.00648203
0.00689115
0.0074054
0.0079223
0.00817665
0.00767794
0.00572999
0.00164137
0.00380048
0.00565589
0.00659817
0.00682989
0.0058299
0.00132001
0.00120054
0.00110806
0.00103118
0.00096568
0.000906876
0.000851443
0.000796385
0.000736903
0.000688547
0.000713991
0.00122492
0.000643768
0.00234195
0.00643308
0.00258034
0.00408653
0.00510796
0.00541139
0.00552183
0.0055265
0.005472
0.00542365
0.00549332
0.00576593
0.00626584
0.0069736
0.00779467
0.00855142
0.00903169
0.00902612
0.00810098
0.00824349
0.00843362
0.00846057
0.00828827
0.00775711
0.00617263
0.00533145
0.00475535
0.0042871
0.0038281
0.00338362
0.00294882
0.00251465
0.0020687
0.00158887
0.0012122
0.00121222
0.000958807
0.000768061
0.00102334
0.000975108
0.00267358
0.00819637
0.00303795
0.0034465
0.00489467
0.00523124
0.00520473
0.0050178
0.00475036
0.00452979
0.00452498
0.00481062
0.00538015
0.00620058
0.0071611
0.00812142
0.00893907
0.00946221
0.00955812
0.00946313
0.00929613
0.00905843
0.00875227
0.00836237
0.00779349
0.00724556
0.00674817
0.00626711
0.00574791
0.0051937
0.00460193
0.00396759
0.00328671
0.00256428
0.00190971
0.00143383
0.00111328
0.00125849
0.00220006
0.00116368
0.00301214
0.00982795
0.0040488
0.0028237
0.00439856
0.00494867
0.00488781
0.00458487
0.00414534
0.00375884
0.00374803
0.00410885
0.00476071
0.0056776
0.00672101
0.00775458
0.0086449
0.00928337
0.00957783
0.00955625
0.00934731
0.00902998
0.00866613
0.00830285
0.00795134
0.00762879
0.00732575
0.00700199
0.006611
0.00614059
0.00558388
0.00493833
0.00420655
0.00340695
0.00262441
0.00189453
0.00139462
0.00125394
0.00224165
0.00137652
0.0033035
0.0110649
0.00552143
0.00268861
0.00348501
0.0043879
0.00451352
0.00426423
0.00374538
0.00321896
0.00333879
0.00381615
0.00454521
0.00548998
0.00657357
0.00765525
0.00857853
0.00922071
0.00951316
0.00947624
0.00920626
0.00880727
0.00837771
0.0079965
0.00770252
0.00749246
0.00732857
0.00715009
0.00690158
0.00655386
0.00609339
0.00551763
0.00483233
0.0040576
0.00325052
0.00243085
0.00169206
0.00114186
0.00330927
0.00182447
0.00339327
0.0104831
0.00683736
0.00347687
0.00236209
0.00289628
0.00338968
0.00343085
0.00302972
0.00294484
0.00325101
0.00381227
0.00460074
0.00560299
0.00673893
0.00785381
0.00877329
0.00936515
0.00957339
0.00943111
0.00903916
0.00852473
0.00801411
0.00760653
0.00734775
0.00722079
0.00716332
0.00709482
0.00695194
0.00670072
0.0063278
0.00583202
0.00522005
0.00450791
0.00372426
0.00283963
0.0016255
0.00145859
0.00525436
0.00205923
0.00332457
0.00845749
0.00706637
0.00477561
0.00315202
0.00244015
0.00231195
0.00242154
0.00262502
0.00294928
0.0034091
0.00404081
0.00489879
0.00598027
0.00717878
0.00830945
0.00918006
0.00965875
0.00970783
0.00938511
0.00881802
0.00816565
0.0075833
0.00718408
0.00700106
0.00697997
0.00702013
0.00701967
0.0069274
0.00672418
0.00640376
0.00596617
0.00541522
0.00475472
0.00396492
0.00284951
0.00124978
0.00263481
0.00497926
0.00209924
0.00311429
0.00723116
0.00683532
0.00546801
0.00420586
0.00338468
0.00297891
0.00288742
0.00305588
0.00336577
0.00381531
0.00448224
0.00543064
0.00661781
0.00787844
0.00898504
0.00973364
0.0100093
0.00980951
0.00923378
0.00845433
0.00767455
0.00708167
0.00678358
0.00674934
0.00684826
0.00694832
0.00695002
0.00685278
0.00665617
0.00635659
0.00595047
0.00543124
0.00477318
0.00387622
0.00254435
0.00136059
0.00281079
0.00555439
0.00212814
0.00283603
0.00652172
0.00659604
0.00579084
0.00492402
0.00427202
0.00388829
0.00375075
0.00378554
0.00397247
0.00438477
0.00513016
0.00622823
0.00754519
0.00883377
0.00982836
0.0103356
0.0102853
0.00973546
0.00884759
0.00786114
0.00703662
0.00656777
0.0064737
0.00655826
0.00669171
0.0067784
0.00675365
0.00664012
0.00644036
0.00614891
0.00575367
0.00521792
0.0044523
0.00327163
0.00193199
0.00160307
0.00322568
0.00560914
0.00224289
0.00258658
0.00583632
0.00630108
0.00591887
0.00536166
0.00489406
0.00458318
0.00443131
0.00438575
0.00454403
0.00506685
0.00604202
0.00737322
0.00880127
0.0100067
0.0107235
0.0108152
0.0102938
0.00930972
0.00810853
0.00702399
0.00632414
0.0060142
0.00598079
0.00608082
0.00620938
0.00628672
0.00626009
0.0061425
0.00593714
0.00563593
0.00520881
0.0045574
0.0034795
0.00211979
0.00154764
0.00203721
0.00366389
0.00572024
0.00218979
0.00259483
0.00579373
0.00643892
0.0059918
0.00554048
0.00517108
0.0049047
0.00473173
0.0047222
0.0051064
0.00602987
0.00741423
0.0089789
0.0103605
0.0112369
0.0114191
0.0108903
0.00977915
0.00837105
0.00700625
0.00601192
0.00542264
0.0051527
0.00510583
0.00518646
0.00530134
0.00537017
0.00533934
0.00520473
0.0049751
0.00464296
0.00416276
0.00340694
0.00233726
0.00158907
0.00172335
0.00253297
0.00377432
0.00484943
0.00205358
0.00234201
0.00243606
0.0035917
0.00421823
0.00441125
0.00441341
0.00436985
0.00444824
0.00498275
0.00612965
0.00775041
0.00950617
0.0110122
0.0119438
0.0121077
0.0114678
0.0101848
0.00851201
0.00691506
0.00565933
0.00481483
0.00433717
0.00413191
0.00408976
0.00412469
0.00416686
0.00415754
0.00406159
0.00386651
0.00360011
0.00327855
0.00289739
0.00242123
0.00189117
0.00163302
0.00196224
0.00280563
0.00383623
0.00450026
0.00196792
0.000806329
0.00146259
0.00225807
0.00290009
0.00364257
0.00489446
0.00673923
0.00879457
0.0106759
0.0120919
0.0128385
0.0127776
0.011908
0.010325
0.00843969
0.00665347
0.00523415
0.00428721
0.00377389
0.00353344
0.00342703
0.00337565
0.00333248
0.00326224
0.00314171
0.00297073
0.00276782
0.00256669
0.00239173
0.00224707
0.00212002
0.00200818
0.00199245
0.0022814
0.00303049
0.00411484
0.00515373
0.00206324
0.0014973
0.00207655
0.00303254
0.00473956
0.00705569
0.00938281
0.0111917
0.012509
0.0133209
0.0135667
0.0131377
0.011921
0.0101017
0.00803152
0.0061245
0.0046949
0.00385738
0.00345893
0.00328609
0.0032108
0.00317301
0.00314029
0.00309068
0.00301165
0.00290526
0.00278916
0.00268632
0.0026136
0.00257469
0.00256311
0.0025732
0.00261346
0.00272294
0.00299429
0.00361084
0.00496443
0.00554049
0.00218029
0.0027567
0.00667815
0.00613864
0.00548292
0.0069723
0.00930606
0.0112816
0.0126244
0.0133451
0.0135404
0.0132954
0.0125636
0.0112882
0.00950296
0.00745088
0.00558276
0.00431611
0.0036703
0.00339909
0.00330263
0.00328479
0.00329987
0.00331992
0.00332566
0.00330755
0.00326793
0.00321904
0.00317588
0.00314876
0.00314135
0.00315523
0.00319324
0.00326389
0.00338691
0.00359954
0.00397166
0.00465113
0.00625343
0.00633267
0.002254
0.00263853
0.00509832
0.0065736
0.0083999
0.00933363
0.0103024
0.0108719
0.0110173
0.0108176
0.0103296
0.00957235
0.0085442
0.00727819
0.00591453
0.00469184
0.00382334
0.00333236
0.00309723
0.00301253
0.00301866
0.00307919
0.00316525
0.00325177
0.00332025
0.00336279
0.00338292
0.00339137
0.0033988
0.00341092
0.00342964
0.00345913
0.00351135
0.00360888
0.00378196
0.00406198
0.00448334
0.00508983
0.00623223
0.00665891
0.00231305
0.00247414
0.00212036
0.00211026
0.00217247
0.00222441
0.00216054
0.00203466
0.00188767
0.00174028
0.00159925
0.00146502
0.00133843
0.00122539
0.00113721
0.00108439
0.00106149
0.00105752
0.00106501
0.00107888
0.00109583
0.00111375
0.00113134
0.00114806
0.00116396
0.00117969
0.00119628
0.00121501
0.0012373
0.0012649
0.00130029
0.00134693
0.00140902
0.00149017
0.00159139
0.00171044
0.00184351
0.00198777
0.00214145
0.00229503
0.00214923
)
;

boundaryField
{
    floor
    {
        type            nutkWallFunction;
        Cmu             0.09;
        kappa           0.41;
        E               9.8;
        value           nonuniform List<scalar> 
36
(
0.00016055
7.63739e-05
0.000109495
0.000110359
0.000107724
0.000103306
9.7377e-05
9.14282e-05
8.59058e-05
8.08883e-05
7.63563e-05
7.22906e-05
6.86159e-05
6.52485e-05
6.20875e-05
5.89933e-05
5.57378e-05
5.30198e-05
4.74859e-05
4.74859e-05
6.15105e-05
7.04464e-05
7.77955e-05
9.30282e-05
0.000123455
0.000117778
0.00016055
0.000174974
0.00016723
0.000160415
7.63739e-05
0.000160415
0.00013603
0.000194648
0.000169887
0.000193922
)
;
    }
    ceiling
    {
        type            nutkWallFunction;
        Cmu             0.09;
        kappa           0.41;
        E               9.8;
        value           nonuniform List<scalar> 
43
(
0.000284368
0.000246399
0.000245308
0.000252038
0.000257645
0.000250773
0.000237145
0.000221109
0.000204891
0.000189234
0.000174195
0.000159873
0.000146953
0.000136774
0.000130622
0.000127942
0.000127469
0.00012834
0.000129958
0.000131937
0.000134029
0.000136081
0.000138027
0.000139875
0.000141698
0.000143613
0.000145767
0.00014832
0.000151467
0.00015548
0.000160744
0.00016772
0.000176803
0.000188094
0.00020132
0.000216027
0.000231864
0.000248605
0.000265199
0.000249459
0.000270457
0.000280508
0.000177603
)
;
    }
    sWall
    {
        type            nutkWallFunction;
        Cmu             0.09;
        kappa           0.41;
        E               9.8;
        value           nonuniform List<scalar> 9(0.000373881 0.000352067 0.000322966 0.000296629 0.000297499 0.000270546 0.000314308 0.000301866 0.000284469);
    }
    nWall
    {
        type            nutkWallFunction;
        Cmu             0.09;
        kappa           0.41;
        E               9.8;
        value           nonuniform List<scalar> 
14
(
0.000117786
0.000139807
0.000164183
0.00024421
0.000247361
0.000259637
0.000253474
0.000238915
0.000229826
0.000240685
0.000252972
0.00026088
0.000267147
0.000249496
)
;
    }
    sideWalls
    {
        type            empty;
    }
    glass1
    {
        type            nutkWallFunction;
        Cmu             0.09;
        kappa           0.41;
        E               9.8;
        value           nonuniform List<scalar> 9(0.000108247 0.000156881 0.000196734 0.000234346 0.000270788 0.000306137 0.000341754 0.000372075 0.00038137);
    }
    glass2
    {
        type            nutkWallFunction;
        Cmu             0.09;
        kappa           0.41;
        E               9.8;
        value           nonuniform List<scalar> 2(0.000214319 0.000239948);
    }
    sun
    {
        type            nutkWallFunction;
        Cmu             0.09;
        kappa           0.41;
        E               9.8;
        value           nonuniform List<scalar> 
14
(
0.000108206
0.000115181
0.000114772
0.000119639
0.000124079
0.000128096
0.000131821
0.0001354
0.000138992
0.000142796
0.000146411
0.000149833
0.000153194
0.000156799
)
;
    }
    Table_master
    {
        type            nutkWallFunction;
        Cmu             0.09;
        kappa           0.41;
        E               9.8;
        value           nonuniform List<scalar> 9(0.000139247 0.000121614 0.00010781 9.6868e-05 8.80583e-05 8.08725e-05 7.49553e-05 7.01009e-05 6.6288e-05);
    }
    Table_slave
    {
        type            nutkWallFunction;
        Cmu             0.09;
        kappa           0.41;
        E               9.8;
        value           nonuniform List<scalar> 9(0.000157734 0.000144045 0.000133345 0.000124371 0.000116666 0.000109697 0.00010308 9.64572e-05 8.92415e-05);
    }
    inlet
    {
        type            calculated;
        value           uniform 0.000167705;
    }
    outlet
    {
        type            calculated;
        value           nonuniform List<scalar> 2(0.0027567 0.00667815);
    }
}


// ************************************************************************* //
