/*--------------------------------*- C++ -*----------------------------------*\
  =========                 |
  \\      /  F ield         | OpenFOAM: The Open Source CFD Toolbox
   \\    /   O peration     | Website:  https://openfoam.org
    \\  /    A nd           | Version:  6
     \\/     M anipulation  |
\*---------------------------------------------------------------------------*/
FoamFile
{
    version     2.0;
    format      ascii;
    class       volVectorField;
    location    "37099.9999985711402";
    object      U;
}
// * * * * * * * * * * * * * * * * * * * * * * * * * * * * * * * * * * * * * //

dimensions      [0 1 -1 0 0 0 0];

internalField   nonuniform List<vector> 
778
(
(0.0656025 0.0794073 0)
(-0.155173 0.0157656 0)
(-0.1643 0.0146259 0)
(-0.192419 0.0122753 0)
(-0.216856 0.0087235 0)
(-0.236915 0.00474046 0)
(-0.252037 0.000411317 0)
(-0.2618 -0.00437599 0)
(-0.265689 -0.00981957 0)
(-0.262703 -0.0161995 0)
(-0.250889 -0.0242717 0)
(-0.226184 -0.034887 0)
(-0.186065 -0.0504023 0)
(-0.144144 -0.0751635 0)
(-0.150044 -0.108542 0)
(0.0546688 0.0354321 0)
(0.0157896 -0.0268604 0)
(0.0449713 -0.0232486 0)
(0.0693583 -0.0161456 0)
(0.0843988 -0.0103424 0)
(0.0915933 -0.00641302 0)
(0.0944262 -0.00434039 0)
(0.0954687 -0.0033179 0)
(0.0959315 -0.00272918 0)
(0.0961058 -0.0023146 0)
(0.09598 -0.00194945 0)
(0.095451 -0.00150923 0)
(0.0941917 -0.00075629 0)
(0.0913445 0.000846623 0)
(0.0851404 0.00406848 0)
(0.0736017 0.00777109 0)
(0.059956 0.0116062 0)
(-0.0079661 0.0299882 0)
(0.258404 0.167391 0)
(-0.161233 0.0483909 0)
(-0.141601 0.0459826 0)
(-0.174007 0.0416169 0)
(-0.199372 0.0356678 0)
(-0.220092 0.0291254 0)
(-0.236119 0.0220498 0)
(-0.247365 0.0142153 0)
(-0.253531 0.0052797 0)
(-0.253837 -0.00517151 0)
(-0.247672 -0.0170998 0)
(-0.233959 -0.0308619 0)
(-0.214048 -0.0480785 0)
(-0.197469 -0.069952 0)
(-0.193947 -0.0826295 0)
(-0.166337 -0.0425562 0)
(-0.1053 -0.0363722 0)
(-0.0983295 -0.0444509 0)
(0.109354 -0.0421168 0)
(0.0645017 -0.0411614 0)
(0.0719418 -0.0322486 0)
(0.0859098 -0.0206887 0)
(0.0937943 -0.0104412 0)
(0.096015 -0.00363181 0)
(0.0957694 -0.00020633 0)
(0.0953819 0.00123594 0)
(0.095348 0.0018888 0)
(0.0954309 0.00226807 0)
(0.0954394 0.00259292 0)
(0.0953397 0.00313493 0)
(0.0950485 0.00441413 0)
(0.0937909 0.00772767 0)
(0.0881907 0.0167613 0)
(0.0744261 0.0253379 0)
(0.0631109 0.0329366 0)
(-0.0520809 0.0635931 0)
(0.429989 0.253951 0)
(-0.194232 0.0847569 0)
(-0.112774 0.0784351 0)
(-0.14824 0.0669581 0)
(-0.170673 0.055499 0)
(-0.188766 0.0437205 0)
(-0.202601 0.0313304 0)
(-0.212288 0.0179868 0)
(-0.217631 0.00337296 0)
(-0.217978 -0.01266 0)
(-0.212712 -0.0303505 0)
(-0.201598 -0.0499287 0)
(-0.185952 -0.0715787 0)
(-0.169413 -0.09321 0)
(-0.151042 -0.104552 0)
(-0.120208 -0.0931255 0)
(-0.0795307 -0.0949129 0)
(-0.0714823 -0.107537 0)
(0.0921174 -0.088219 0)
(0.0625772 -0.0657613 0)
(0.0743844 -0.0461035 0)
(0.0880165 -0.029205 0)
(0.0948521 -0.0148592 0)
(0.091936 -0.0119607 0)
(0.0877021 -0.00792989 0)
(0.0853352 -0.00578583 0)
(0.0846329 -0.00456959 0)
(0.0846007 -0.00380482 0)
(0.0848548 -0.0032284 0)
(0.0855097 -0.00259895 0)
(0.0872739 -0.00143929 0)
(0.091961 0.00291937 0)
(0.090109 0.0251135 0)
(0.0732762 0.0423658 0)
(0.0700722 0.0574306 0)
(-0.0902632 0.100907 0)
(0.578563 0.325835 0)
(-0.240104 0.121805 0)
(-0.0808261 0.109225 0)
(-0.121567 0.0898563 0)
(-0.139001 0.0740688 0)
(-0.153062 0.0586287 0)
(-0.16382 0.0427368 0)
(-0.171412 0.0257831 0)
(-0.175617 0.00716321 0)
(-0.175673 -0.0135701 0)
(-0.170975 -0.0365059 0)
(-0.161398 -0.0614809 0)
(-0.147524 -0.087381 0)
(-0.130542 -0.110292 0)
(-0.10958 -0.123181 0)
(-0.082102 -0.124512 0)
(-0.0524878 -0.12633 0)
(-0.0333429 -0.123127 0)
(0.0164081 -0.056794 0)
(0.0608585 -0.093059 0)
(0.0684828 -0.0791861 0)
(0.0790911 -0.0587931 0)
(0.0915815 -0.0395341 0)
(0.10292 -0.0208703 0)
(0.115663 -0.0131468 0)
(0.126806 -0.00877936 0)
(0.132394 -0.00558996 0)
(0.133381 -0.00309801 0)
(0.130871 -0.000882354 0)
(0.125425 0.00128539 0)
(0.116908 0.00367063 0)
(0.104546 0.00673388 0)
(0.0852673 0.0111751 0)
(0.0713756 0.0368781 0)
(0.0600388 0.0605961 0)
(0.0762207 0.0833156 0)
(-0.118309 0.137054 0)
(0.705753 0.383671 0)
(-0.287686 0.156997 0)
(-0.0476848 0.133781 0)
(-0.0962817 0.106922 0)
(-0.107731 0.0875981 0)
(-0.116766 0.069171 0)
(-0.123557 0.0504354 0)
(-0.128218 0.0305631 0)
(-0.130576 0.00868649 0)
(-0.129763 -0.0158657 0)
(-0.125254 -0.043122 0)
(-0.116619 -0.072716 0)
(-0.103884 -0.102836 0)
(-0.0873975 -0.129075 0)
(-0.0674319 -0.145757 0)
(-0.044079 -0.152225 0)
(-0.0202109 -0.152323 0)
(0.000336051 -0.143673 0)
(0.0308555 -0.114978 0)
(0.0570062 -0.109349 0)
(0.0705609 -0.0924139 0)
(0.0806805 -0.0712192 0)
(0.0907321 -0.0507507 0)
(0.100284 -0.0327114 0)
(0.109388 -0.0193507 0)
(0.116408 -0.00999485 0)
(0.119833 -0.00331683 0)
(0.120038 0.00192376 0)
(0.11764 0.00646116 0)
(0.113003 0.0108127 0)
(0.106149 0.0154924 0)
(0.0970025 0.0212029 0)
(0.0850505 0.0292406 0)
(0.0734431 0.0472973 0)
(0.0628408 0.0713669 0)
(0.0944641 0.0994146 0)
(0.0161724 0.138209 0)
(0.0956915 0.183034 0)
(0.14121 0.144035 0)
(-0.219595 0.202081 0)
(0.810472 0.431962 0)
(-0.331332 0.190661 0)
(-0.0172989 0.150245 0)
(-0.0733545 0.117524 0)
(-0.0785772 0.0955186 0)
(-0.0822018 0.0749488 0)
(-0.0844616 0.0543371 0)
(-0.0855049 0.0327004 0)
(-0.0852544 0.00882625 0)
(-0.0825811 -0.018456 0)
(-0.0774085 -0.0490721 0)
(-0.068768 -0.0825372 0)
(-0.0567493 -0.11652 0)
(-0.0416589 -0.146303 0)
(-0.0246324 -0.165981 0)
(-0.00621516 -0.174465 0)
(0.0121846 -0.1727 0)
(0.0281006 -0.160952 0)
(0.0462493 -0.139276 0)
(0.0626705 -0.122304 0)
(0.0733082 -0.102449 0)
(0.0809573 -0.0803855 0)
(0.0876929 -0.0590339 0)
(0.0938579 -0.040161 0)
(0.0991791 -0.0250033 0)
(0.102864 -0.0136737 0)
(0.104472 -0.00501106 0)
(0.104058 0.00215332 0)
(0.101927 0.00860028 0)
(0.098324 0.0148552 0)
(0.0933988 0.0214523 0)
(0.0873692 0.0290308 0)
(0.0804777 0.0385059 0)
(0.074647 0.0530217 0)
(0.0692219 0.0730948 0)
(0.0911912 0.0987902 0)
(0.0726988 0.10727 0)
(0.0893829 0.0470721 0)
(0.146628 -0.0375683 0)
(-0.328291 0.108176 0)
(0.879958 0.47467 0)
(-0.368661 0.220939 0)
(0.0037448 0.155549 0)
(-0.0526447 0.121573 0)
(-0.0521879 0.0978624 0)
(-0.0510123 0.0758323 0)
(-0.0490162 0.0540479 0)
(-0.04651 0.0315266 0)
(-0.0433363 0.00674977 0)
(-0.0373879 -0.0223357 0)
(-0.0303158 -0.0554138 0)
(-0.0205203 -0.0919857 0)
(-0.00868177 -0.128931 0)
(0.004579 -0.161269 0)
(0.0176946 -0.181893 0)
(0.0305258 -0.190199 0)
(0.0423582 -0.187181 0)
(0.0526653 -0.174347 0)
(0.0626139 -0.153981 0)
(0.0711528 -0.13232 0)
(0.0766339 -0.109295 0)
(0.0800511 -0.0857845 0)
(0.0826103 -0.063602 0)
(0.0848141 -0.0441075 0)
(0.0866212 -0.0280295 0)
(0.0876999 -0.0152723 0)
(0.0878316 -0.00505159 0)
(0.0868699 0.00355924 0)
(0.085005 0.0112508 0)
(0.0823797 0.0185571 0)
(0.0791608 0.025992 0)
(0.0756115 0.0340727 0)
(0.0721066 0.0433683 0)
(0.0699799 0.0551748 0)
(0.0685295 0.0698461 0)
(0.0812229 0.088998 0)
(0.083745 0.0919542 0)
(0.0887837 0.0533364 0)
(0.181879 0.0242693 0)
(-0.282648 0.155653 0)
(0.928015 0.517123 0)
(-0.383188 0.234134 0)
(0.0169299 0.132954 0)
(-0.0273034 0.116657 0)
(-0.0265248 0.0949353 0)
(-0.0227231 0.0724458 0)
(-0.0176226 0.050118 0)
(-0.0123621 0.0272557 0)
(-0.00543284 0.00186557 0)
(0.00453985 -0.030767 0)
(0.0142514 -0.0653754 0)
(0.025562 -0.103397 0)
(0.0372395 -0.14093 0)
(0.0479693 -0.172204 0)
(0.0571195 -0.192375 0)
(0.064659 -0.199821 0)
(0.0704077 -0.195352 0)
(0.0743646 -0.181111 0)
(0.0770424 -0.159993 0)
(0.0783625 -0.135975 0)
(0.0779512 -0.110947 0)
(0.0763905 -0.0864107 0)
(0.0745148 -0.0638429 0)
(0.0728516 -0.0442506 0)
(0.0715425 -0.0280194 0)
(0.0704588 -0.0148695 0)
(0.0694125 -0.00409826 0)
(0.0681169 0.00508064 0)
(0.0666885 0.0132595 0)
(0.0650974 0.0209404 0)
(0.0634174 0.0285713 0)
(0.0618194 0.0365332 0)
(0.0605717 0.0451498 0)
(0.0604787 0.054921 0)
(0.0612576 0.0658057 0)
(0.0694526 0.0792662 0)
(0.0781521 0.0821698 0)
(0.0770807 0.0596076 0)
(0.240538 0.0510701 0)
(-0.547538 0.231797 0)
(1.01137 0.506769 0)
(-0.137202 0.296304 0)
(0.0411016 0.161483 0)
(0.0406254 0.122065 0)
(0.0131098 0.0919733 0)
(0.00869175 0.065378 0)
(0.0141063 0.0414067 0)
(0.0207176 0.0169899 0)
(0.0325022 -0.0110224 0)
(0.0439526 -0.0421706 0)
(0.0558174 -0.076963 0)
(0.0681075 -0.114728 0)
(0.0792814 -0.151218 0)
(0.0878348 -0.180684 0)
(0.0931106 -0.198683 0)
(0.0952073 -0.203797 0)
(0.0945245 -0.197084 0)
(0.091606 -0.180979 0)
(0.0871292 -0.158536 0)
(0.0815486 -0.133072 0)
(0.0751624 -0.107017 0)
(0.0685734 -0.0821897 0)
(0.0625066 -0.059952 0)
(0.0574857 -0.0410375 0)
(0.0537092 -0.0255444 0)
(0.051087 -0.0129824 0)
(0.0493622 -0.00257158 0)
(0.0481404 0.00639353 0)
(0.0474019 0.0144285 0)
(0.0469181 0.0219949 0)
(0.0466362 0.029459 0)
(0.0465957 0.0370863 0)
(0.0468978 0.0450545 0)
(0.0479035 0.0535379 0)
(0.049378 0.0623304 0)
(0.0542478 0.0718388 0)
(0.061104 0.0716454 0)
(0.0509692 0.0412909 0)
(0.290095 0.0687539 0)
(-0.779844 0.304927 0)
(0.779363 0.395626 0)
(0.000835472 0.319434 0)
(0.0933924 0.218868 0)
(0.110622 0.155123 0)
(0.077187 0.106785 0)
(0.0598112 0.0675254 0)
(0.0582294 0.0357563 0)
(0.0623892 0.00641407 0)
(0.0737985 -0.0234379 0)
(0.0853584 -0.0550681 0)
(0.097552 -0.0898238 0)
(0.109433 -0.126389 0)
(0.118843 -0.160218 0)
(0.123997 -0.185944 0)
(0.124282 -0.199986 0)
(0.120114 -0.201514 0)
(0.112436 -0.191909 0)
(0.102316 -0.173738 0)
(0.090795 -0.150042 0)
(0.0787149 -0.123855 0)
(0.0667671 -0.0977131 0)
(0.0556824 -0.0735277 0)
(0.0461884 -0.0525596 0)
(0.0387635 -0.0352641 0)
(0.0335257 -0.0214489 0)
(0.0302599 -0.010344 0)
(0.0285233 -0.00103244 0)
(0.0278575 0.00713121 0)
(0.0279944 0.0146109 0)
(0.0285976 0.0217966 0)
(0.0295348 0.0289531 0)
(0.0307404 0.0362601 0)
(0.0321502 0.0438524 0)
(0.0337126 0.0518814 0)
(0.034645 0.0604237 0)
(0.0345334 0.070195 0)
(0.0213877 0.0769856 0)
(0.00928438 0.101091 0)
(0.0427907 0.169967 0)
(-0.659616 0.286707 0)
(0.617277 0.220712 0)
(0.00462518 0.298047 0)
(0.113019 0.241491 0)
(0.148303 0.177488 0)
(0.130877 0.123443 0)
(0.117859 0.0777851 0)
(0.114995 0.0388618 0)
(0.117152 0.0033829 0)
(0.123499 -0.0307251 0)
(0.131713 -0.0650332 0)
(0.141399 -0.10058 0)
(0.150297 -0.13553 0)
(0.155464 -0.16547 0)
(0.154963 -0.186031 0)
(0.148469 -0.194892 0)
(0.136874 -0.192086 0)
(0.121641 -0.179376 0)
(0.104269 -0.159354 0)
(0.086132 -0.134942 0)
(0.0683286 -0.108928 0)
(0.0518028 -0.0837884 0)
(0.0374156 -0.0613829 0)
(0.0259149 -0.0428276 0)
(0.0175979 -0.0281947 0)
(0.0122932 -0.0169242 0)
(0.00939573 -0.00787646 0)
(0.00821228 -6.99202e-05 0)
(0.00834825 0.00703399 0)
(0.00930116 0.0138094 0)
(0.0108051 0.0205231 0)
(0.0127219 0.0273341 0)
(0.0149454 0.0343713 0)
(0.0173444 0.0418011 0)
(0.019769 0.0499405 0)
(0.0216933 0.0595077 0)
(0.0226982 0.0728604 0)
(0.00790856 0.0944721 0)
(-0.00685255 0.141924 0)
(0.15099 0.182733 0)
(-0.557589 0.179156 0)
(0.570778 0.118383 0)
(-0.0203862 0.258554 0)
(0.113693 0.229821 0)
(0.165053 0.175978 0)
(0.166738 0.126106 0)
(0.164415 0.0810457 0)
(0.165403 0.0399498 0)
(0.1683 0.00162942 0)
(0.172238 -0.0353817 0)
(0.177791 -0.071925 0)
(0.183956 -0.107659 0)
(0.187663 -0.139803 0)
(0.18589 -0.164442 0)
(0.177248 -0.178725 0)
(0.16218 -0.181843 0)
(0.142221 -0.1747 0)
(0.11931 -0.159348 0)
(0.0951984 -0.138247 0)
(0.0714819 -0.114126 0)
(0.0493693 -0.0894702 0)
(0.0300196 -0.0666711 0)
(0.0143918 -0.0474488 0)
(0.00311658 -0.0326169 0)
(-0.00416897 -0.0214412 0)
(-0.00811206 -0.013197 0)
(-0.0100178 -0.00626353 0)
(-0.0104924 7.02665e-05 0)
(-0.00979948 0.0061453 0)
(-0.00833819 0.0121983 0)
(-0.00624974 0.018377 0)
(-0.00366119 0.0247726 0)
(-0.000688562 0.0315042 0)
(0.00257444 0.038817 0)
(0.00604453 0.0469726 0)
(0.0097525 0.0571214 0)
(0.0133606 0.0735762 0)
(0.00402505 0.103834 0)
(-0.0175514 0.151463 0)
(0.211276 0.187493 0)
(-0.45782 0.168315 0)
(0.628383 0.0537352 0)
(0.00897184 0.19727 0)
(0.113758 0.196862 0)
(0.175107 0.157822 0)
(0.191402 0.117588 0)
(0.19809 0.0772091 0)
(0.203427 0.0372558 0)
(0.208609 -0.00148553 0)
(0.213069 -0.0396205 0)
(0.217341 -0.0765212 0)
(0.219144 -0.110027 0)
(0.215316 -0.13695 0)
(0.203958 -0.154638 0)
(0.185155 -0.162068 0)
(0.160523 -0.159791 0)
(0.132232 -0.149225 0)
(0.102533 -0.132463 0)
(0.0731375 -0.111616 0)
(0.0458249 -0.0892197 0)
(0.0217234 -0.0674218 0)
(0.00239435 -0.0485816 0)
(-0.0113665 -0.0341934 0)
(-0.019576 -0.0244229 0)
(-0.024376 -0.0170765 0)
(-0.026935 -0.0110316 0)
(-0.0280615 -0.00555846 0)
(-0.0280779 -0.000322963 0)
(-0.0271056 0.00488038 0)
(-0.0253633 0.0102191 0)
(-0.0229295 0.0158165 0)
(-0.0199524 0.0217616 0)
(-0.016616 0.0281693 0)
(-0.0131302 0.0352441 0)
(-0.0096124 0.0433268 0)
(-0.00635941 0.0541231 0)
(-0.00670499 0.0749192 0)
(-0.0166909 0.105287 0)
(-0.0288211 0.129784 0)
(0.205219 0.177474 0)
(-0.475178 0.213396 0)
(0.472984 0.0748636 0)
(-0.132294 0.137485 0)
(0.0942199 0.13312 0)
(0.17273 0.116612 0)
(0.203884 0.0951863 0)
(0.218206 0.064304 0)
(0.228187 0.0283778 0)
(0.237208 -0.00889768 0)
(0.243526 -0.0452227 0)
(0.244985 -0.0782173 0)
(0.238977 -0.105198 0)
(0.224136 -0.124059 0)
(0.200978 -0.133898 0)
(0.171419 -0.13514 0)
(0.138058 -0.129041 0)
(0.103204 -0.116886 0)
(0.0691953 -0.100559 0)
(0.0372241 -0.081687 0)
(0.00968061 -0.0627885 0)
(-0.0129394 -0.0456187 0)
(-0.0271744 -0.0338962 0)
(-0.0360304 -0.0256562 0)
(-0.0412231 -0.0194943 0)
(-0.0442938 -0.0143123 0)
(-0.0459637 -0.00967153 0)
(-0.0465851 -0.00528627 0)
(-0.0462859 -0.000983824 0)
(-0.045077 0.00338799 0)
(-0.0431109 0.0079908 0)
(-0.0404211 0.0129943 0)
(-0.0372086 0.0185525 0)
(-0.0337998 0.0248676 0)
(-0.0307404 0.0322917 0)
(-0.0287069 0.0416646 0)
(-0.0288846 0.056239 0)
(-0.0367467 0.0826103 0)
(-0.0559584 0.114261 0)
(-0.0530303 0.133888 0)
(0.0271845 0.177007 0)
(-0.527524 0.217866 0)
(0.724202 0.13455 0)
(0.0818821 0.115274 0)
(0.149774 0.0990685 0)
(0.222449 0.0802326 0)
(0.244166 0.0696944 0)
(0.248998 0.0475507 0)
(0.255264 0.0175759 0)
(0.26131 -0.0145674 0)
(0.260266 -0.0445566 0)
(0.249715 -0.0694575 0)
(0.229407 -0.0875254 0)
(0.200913 -0.0982412 0)
(0.166615 -0.101865 0)
(0.129089 -0.0993916 0)
(0.0908812 -0.0920949 0)
(0.05348 -0.0806717 0)
(0.0196532 -0.0667938 0)
(-0.0110281 -0.0515739 0)
(-0.0327347 -0.0395668 0)
(-0.0472011 -0.0309402 0)
(-0.0559731 -0.0250455 0)
(-0.0613807 -0.0203904 0)
(-0.0647685 -0.0163134 0)
(-0.0668906 -0.0124902 0)
(-0.0680398 -0.00886696 0)
(-0.0683206 -0.00538381 0)
(-0.0677565 -0.0019353 0)
(-0.0662733 0.00163686 0)
(-0.0640845 0.00550823 0)
(-0.0611191 0.00991685 0)
(-0.0575741 0.015151 0)
(-0.0538131 0.0216038 0)
(-0.0505405 0.0299886 0)
(-0.0484821 0.0418529 0)
(-0.0475699 0.0607625 0)
(-0.0519779 0.0920562 0)
(-0.0688897 0.133077 0)
(-0.0610685 0.16357 0)
(-0.052894 0.160784 0)
(-0.575303 0.096884 0)
(0.192285 0.0878406 0)
(0.226021 0.0994864 0)
(0.24676 0.0698907 0)
(0.242803 0.0397545 0)
(0.239892 0.0122913 0)
(0.234854 -0.0125876 0)
(0.220099 -0.0330434 0)
(0.196323 -0.0482516 0)
(0.165843 -0.0581586 0)
(0.13112 -0.0631965 0)
(0.0939797 -0.0636464 0)
(0.056485 -0.0602844 0)
(0.0206664 -0.054021 0)
(-0.0140381 -0.0450531 0)
(-0.0405525 -0.0366307 0)
(-0.0602417 -0.0297874 0)
(-0.0732375 -0.0252732 0)
(-0.0815506 -0.0220449 0)
(-0.0869616 -0.0193499 0)
(-0.0907513 -0.0165921 0)
(-0.0934807 -0.0137469 0)
(-0.095366 -0.010928 0)
(-0.0964685 -0.00823029 0)
(-0.0967975 -0.0056482 0)
(-0.0963254 -0.00307766 0)
(-0.0949405 -0.000331545 0)
(-0.0927393 0.0027863 0)
(-0.0896084 0.00651265 0)
(-0.0854679 0.0112446 0)
(-0.0804085 0.0175332 0)
(-0.0747774 0.0262916 0)
(-0.0687792 0.0391943 0)
(-0.0610122 0.0592393 0)
(-0.0507443 0.090772 0)
(-0.0457402 0.136402 0)
(-0.0307876 0.187389 0)
(0.103189 0.179531 0)
(-0.485648 0.0252733 0)
(0.451638 0.209088 0)
(0.206917 0.178372 0)
(0.153107 0.118607 0)
(0.139874 0.0640571 0)
(0.128455 0.0260902 0)
(0.114275 0.00209843 0)
(0.0989408 -0.0125907 0)
(0.0777779 -0.0216884 0)
(0.0528309 -0.027296 0)
(0.0253107 -0.0298336 0)
(-0.00500125 -0.0292599 0)
(-0.0342204 -0.026713 0)
(-0.0598743 -0.023578 0)
(-0.0808389 -0.020956 0)
(-0.0958396 -0.0197273 0)
(-0.105973 -0.019111 0)
(-0.112754 -0.0185185 0)
(-0.117799 -0.017192 0)
(-0.121969 -0.01507 0)
(-0.125552 -0.0124 0)
(-0.128551 -0.00954862 0)
(-0.130903 -0.00682956 0)
(-0.132558 -0.00444461 0)
(-0.133496 -0.00246257 0)
(-0.13368 -0.000828408 0)
(-0.132994 0.000617083 0)
(-0.131126 0.00210142 0)
(-0.127933 0.00392268 0)
(-0.123022 0.00653472 0)
(-0.116034 0.0106515 0)
(-0.10681 0.0173883 0)
(-0.0950518 0.0284377 0)
(-0.079177 0.0461249 0)
(-0.0564716 0.0729526 0)
(-0.0297735 0.11089 0)
(-0.00522483 0.160942 0)
(0.165486 0.158967 0)
(-0.390853 0.0814396 0)
(0.361607 -0.413946 0)
(-0.345304 -0.512098 0)
(-0.218289 -0.0284517 0)
(-0.092645 0.110649 0)
(-0.0534122 0.0926052 0)
(-0.0310826 0.0548352 0)
(-0.0262699 0.0288472 0)
(-0.031339 0.0122429 0)
(-0.0404094 0.00156612 0)
(-0.0511539 -0.00538671 0)
(-0.0650561 -0.00964311 0)
(-0.0807302 -0.012053 0)
(-0.0969989 -0.0138263 0)
(-0.11238 -0.0161508 0)
(-0.125575 -0.0189968 0)
(-0.135319 -0.0220096 0)
(-0.141583 -0.0247391 0)
(-0.145829 -0.0265764 0)
(-0.149507 -0.0275428 0)
(-0.153352 -0.0278193 0)
(-0.157446 -0.027615 0)
(-0.161601 -0.0270712 0)
(-0.16556 -0.0262571 0)
(-0.169075 -0.0251734 0)
(-0.171934 -0.0237907 0)
(-0.173985 -0.0221002 0)
(-0.17514 -0.0201344 0)
(-0.175321 -0.0179336 0)
(-0.174345 -0.015472 0)
(-0.171783 -0.0126171 0)
(-0.166994 -0.00910174 0)
(-0.159162 -0.00434979 0)
(-0.147462 0.00267573 0)
(-0.131184 0.0133915 0)
(-0.109365 0.0287148 0)
(-0.0798351 0.048407 0)
(-0.0422144 0.072219 0)
(-0.00242505 0.107377 0)
(0.186388 0.129123 0)
(-0.398171 0.138284 0)
(0.124139 -0.184828 0)
(-0.38736 -0.297311 0)
(-0.342747 -0.096791 0)
(-0.264567 0.051051 0)
(-0.210906 0.0832866 0)
(-0.178761 0.0744969 0)
(-0.16243 0.0611399 0)
(-0.156362 0.0512835 0)
(-0.156369 0.0461901 0)
(-0.159609 0.0456111 0)
(-0.164188 0.0486864 0)
(-0.168517 0.0541564 0)
(-0.171726 0.0605094 0)
(-0.173643 0.0655323 0)
(-0.174843 0.0663608 0)
(-0.176262 0.0632321 0)
(-0.178567 0.0595411 0)
(-0.181907 0.0576186 0)
(-0.185943 0.0577843 0)
(-0.190217 0.0593606 0)
(-0.194334 0.0615299 0)
(-0.19803 0.0635962 0)
(-0.201165 0.064999 0)
(-0.203686 0.0653475 0)
(-0.205574 0.0644806 0)
(-0.206812 0.0624693 0)
(-0.20738 0.0594925 0)
(-0.207247 0.0556319 0)
(-0.206321 0.0507357 0)
(-0.204374 0.0444802 0)
(-0.200972 0.0366611 0)
(-0.195503 0.0274678 0)
(-0.187275 0.0177014 0)
(-0.1755 0.00858805 0)
(-0.158951 0.000997279 0)
(-0.135973 -0.00598151 0)
(-0.103081 -0.01286 0)
(-0.0537504 -0.00797704 0)
(0.187867 0.0701184 0)
(-0.449265 0.195078 0)
(1.14727 -0.0108196 0)
(-0.295197 -0.322165 0)
(-0.352633 -0.232595 0)
(-0.352182 -0.14829 0)
(-0.328626 -0.107008 0)
(-0.297015 -0.0983342 0)
(-0.269619 -0.100335 0)
(-0.24948 -0.105719 0)
(-0.235588 -0.112903 0)
(-0.225894 -0.121964 0)
(-0.218659 -0.133484 0)
(-0.212877 -0.147835 0)
(-0.208284 -0.164136 0)
(-0.205215 -0.179497 0)
(-0.204483 -0.189538 0)
(-0.206946 -0.193191 0)
(-0.212356 -0.192583 0)
(-0.219366 -0.189732 0)
(-0.226549 -0.186225 0)
(-0.232947 -0.182869 0)
(-0.238107 -0.179884 0)
(-0.241927 -0.177167 0)
(-0.244545 -0.174486 0)
(-0.246264 -0.171582 0)
(-0.247477 -0.168223 0)
(-0.248561 -0.164235 0)
(-0.24981 -0.159522 0)
(-0.251472 -0.154061 0)
(-0.253897 -0.147854 0)
(-0.257645 -0.140817 0)
(-0.263408 -0.132581 0)
(-0.271716 -0.122232 0)
(-0.28256 -0.108157 0)
(-0.295161 -0.0883439 0)
(-0.307774 -0.0614042 0)
(-0.316262 -0.0277331 0)
(-0.310309 0.0113314 0)
(-0.277475 0.05829 0)
(-0.251185 0.120168 0)
(-0.593882 0.201419 0)
)
;

boundaryField
{
    floor
    {
        type            noSlip;
    }
    ceiling
    {
        type            noSlip;
    }
    sWall
    {
        type            noSlip;
    }
    nWall
    {
        type            noSlip;
    }
    sideWalls
    {
        type            empty;
    }
    glass1
    {
        type            noSlip;
    }
    glass2
    {
        type            noSlip;
    }
    sun
    {
        type            noSlip;
    }
    Table_master
    {
        type            noSlip;
    }
    Table_slave
    {
        type            noSlip;
    }
    inlet
    {
        type            fixedValue;
        value           uniform (0.5 0 0);
    }
    outlet
    {
        type            zeroGradient;
    }
}


// ************************************************************************* //
