/*--------------------------------*- C++ -*----------------------------------*\
  =========                 |
  \\      /  F ield         | OpenFOAM: The Open Source CFD Toolbox
   \\    /   O peration     | Website:  https://openfoam.org
    \\  /    A nd           | Version:  6
     \\/     M anipulation  |
\*---------------------------------------------------------------------------*/
FoamFile
{
    version     2.0;
    format      ascii;
    class       volScalarField;
    location    "9500";
    object      k;
}
// * * * * * * * * * * * * * * * * * * * * * * * * * * * * * * * * * * * * * //

dimensions      [0 2 -2 0 0 0 0];

internalField   nonuniform List<scalar> 
778
(
0.00158588
0.0018011
0.00178804
0.00194667
0.00209798
0.00224033
0.00237707
0.00251272
0.00265308
0.00280641
0.0029566
0.00310281
0.00325023
0.00341254
0.00358609
0.000793032
0.00162452
0.00165089
0.00157191
0.0014442
0.00128214
0.00113022
0.000998674
0.000887001
0.000792485
0.000712763
0.000644766
0.000585799
0.000533317
0.000484607
0.00043617
0.000397905
0.000326058
0.00340686
0.00643323
0.00268761
0.00274629
0.00288804
0.00305468
0.00323509
0.00343091
0.00364417
0.00387449
0.00412648
0.00438006
0.00459555
0.00470045
0.00459446
0.00429808
0.00390704
0.00357975
0.00253576
0.00281144
0.00295318
0.00289524
0.00266238
0.00226372
0.00190483
0.00160886
0.00136933
0.00117563
0.00101689
0.000885118
0.000773878
0.000681077
0.000615062
0.000574512
0.000864241
0.000523925
0.00549052
0.0127805
0.00347802
0.00321237
0.00329775
0.00345563
0.00363706
0.00384127
0.00407161
0.0043282
0.00463618
0.00501128
0.00545101
0.00595992
0.00653026
0.00685837
0.00627629
0.00538497
0.00403749
0.00416883
0.00417146
0.00397349
0.00357533
0.00266309
0.00201344
0.00157445
0.00126864
0.00104886
0.000886686
0.000764461
0.000671704
0.000603533
0.000551371
0.000548575
0.00116583
0.00067788
0.00797305
0.021757
0.00449106
0.00339099
0.00334181
0.0034384
0.0035498
0.00366929
0.00380954
0.00399185
0.00425963
0.00464883
0.00517123
0.00582471
0.00655367
0.00713309
0.00722684
0.00724216
0.00534296
0.00555033
0.0053762
0.00512528
0.0047864
0.00434732
0.00345479
0.00285769
0.00243449
0.00210857
0.00184933
0.00163103
0.00143775
0.00125782
0.00107695
0.000799978
0.000659285
0.00142265
0.000821313
0.0108755
0.0336321
0.00621223
0.00342518
0.00315853
0.00316723
0.00318985
0.00321015
0.00325244
0.00336145
0.00359509
0.00398943
0.00455337
0.00527614
0.00608589
0.00681618
0.00728216
0.00764343
0.0075172
0.00665405
0.00607334
0.00557904
0.00509892
0.00462895
0.00412235
0.00366465
0.00327398
0.00293632
0.00263018
0.00234683
0.00207835
0.00181764
0.00155409
0.0012209
0.000929111
0.00119008
0.00121564
0.00116845
0.00206216
0.00187188
0.0141736
0.0475954
0.00928241
0.00349004
0.00290871
0.00282292
0.00276457
0.00269972
0.0026644
0.00273476
0.00298104
0.00341436
0.00402319
0.00479662
0.00565189
0.00645889
0.00706678
0.00740584
0.00732283
0.00678943
0.00621488
0.00563709
0.00507418
0.00455572
0.00409088
0.00369517
0.0033626
0.00307315
0.00280623
0.00255095
0.00229833
0.00204145
0.00177304
0.00147053
0.00117701
0.00111148
0.00111001
0.0017298
0.00516424
0.00266828
0.0179902
0.0606029
0.0143569
0.00381916
0.00271523
0.00252945
0.00241186
0.00229411
0.00222113
0.00231172
0.00263052
0.00313936
0.00380142
0.00462942
0.00552582
0.00636355
0.0069979
0.00732581
0.00725298
0.00681723
0.00621493
0.00555454
0.00491168
0.00434255
0.00387228
0.00350028
0.00320666
0.00296175
0.00274134
0.00252901
0.00231316
0.00208658
0.00184449
0.00158231
0.00132638
0.00115782
0.00109046
0.00157596
0.00638609
0.00372725
0.0216389
0.0704798
0.0214321
0.00510054
0.00274241
0.00237166
0.00221003
0.00208185
0.00202627
0.00221961
0.0026501
0.00323104
0.00393646
0.00477246
0.00569573
0.00656964
0.00721999
0.00751107
0.00738234
0.00689499
0.00619741
0.0054264
0.00469114
0.00406423
0.00357433
0.00321254
0.00294789
0.00274133
0.00256467
0.00239623
0.00222218
0.00203502
0.00183146
0.00161252
0.00139662
0.00122571
0.00115045
0.0021651
0.0147621
0.00650538
0.0228317
0.0694964
0.0325293
0.0110497
0.00406383
0.00258635
0.00223505
0.00210273
0.00218975
0.00251259
0.0030009
0.00360218
0.00433157
0.00521013
0.00618122
0.00708305
0.00771291
0.00791957
0.00766196
0.00702361
0.00616387
0.00524753
0.00440693
0.00372216
0.00321664
0.00286911
0.00263603
0.00246968
0.00233707
0.00221215
0.00207991
0.00193322
0.00176991
0.0015927
0.00141531
0.00127591
0.00131495
0.00418629
0.0303396
0.00818545
0.0219175
0.0516411
0.0336416
0.017426
0.00857986
0.00475418
0.00325863
0.00272892
0.00285241
0.00321082
0.00367259
0.00424606
0.00499365
0.00593499
0.00696961
0.00788267
0.00843722
0.00847993
0.00800009
0.00712075
0.00603886
0.00495238
0.00401071
0.00329058
0.0027981
0.00248906
0.00230284
0.00218509
0.00209735
0.00201268
0.00191752
0.00180628
0.00167812
0.00153665
0.00139361
0.00129341
0.00159517
0.00858223
0.0271165
0.00864022
0.0192339
0.0394435
0.0302384
0.0195615
0.012176
0.00793304
0.00571279
0.00466614
0.00436
0.0043983
0.00465125
0.00514323
0.00593136
0.00697577
0.00808297
0.00895945
0.00933938
0.00909282
0.00826892
0.00705587
0.0057075
0.00445736
0.00346101
0.00276882
0.00234869
0.00211542
0.00199089
0.00192414
0.00187477
0.00182129
0.0017538
0.00166876
0.00156697
0.00145428
0.00134625
0.00132123
0.00198257
0.00834647
0.0265412
0.00881966
0.0159509
0.0315916
0.0266527
0.0195372
0.0139726
0.0102801
0.00802322
0.00674684
0.0060455
0.00572815
0.00577979
0.0062698
0.00720287
0.00841023
0.00956059
0.0102798
0.0103095
0.00959137
0.00828092
0.0066581
0.00504976
0.00371749
0.0027923
0.00223389
0.00195442
0.00181481
0.00174631
0.00171311
0.00168606
0.00165071
0.00159993
0.00153129
0.00144696
0.00135879
0.0012998
0.00148817
0.00299492
0.00908653
0.0239443
0.00887551
0.0132675
0.0256754
0.0233537
0.0186901
0.0145824
0.0115859
0.00954071
0.00820687
0.00729749
0.00683743
0.00695386
0.00771223
0.00896843
0.0103553
0.011401
0.0117066
0.0111097
0.00969364
0.00778037
0.00575238
0.00402453
0.00283289
0.00219293
0.00186076
0.00169692
0.00161619
0.00157659
0.00155588
0.00153531
0.00150523
0.00146045
0.00139984
0.00132952
0.00127546
0.00135743
0.00212725
0.00463071
0.0102454
0.0198463
0.00812165
0.0133476
0.0224239
0.0220614
0.0177617
0.0143929
0.0118936
0.0100828
0.00876807
0.00791712
0.00777155
0.00846618
0.00985653
0.0115121
0.0128633
0.0134047
0.0128534
0.0112867
0.00898216
0.00651343
0.00430345
0.00295936
0.00222175
0.00185162
0.001664
0.00156495
0.00150944
0.00147618
0.00145291
0.00142752
0.00139366
0.00134831
0.00129279
0.00123952
0.00123947
0.00149899
0.00265507
0.00557252
0.0105841
0.0162922
0.00749825
0.0108742
0.0117656
0.0129249
0.0125541
0.0113765
0.0100773
0.00894979
0.00820587
0.00830279
0.00941034
0.0112788
0.013343
0.0149388
0.0155314
0.0148558
0.012902
0.0101658
0.00702135
0.00463808
0.00313599
0.00234756
0.00195773
0.00175665
0.0016381
0.00155841
0.0015002
0.00145554
0.00141911
0.00138294
0.00134372
0.00130254
0.0012657
0.00125172
0.00131812
0.00164706
0.00272966
0.00533715
0.00991035
0.0171715
0.00769793
0.00354312
0.00482499
0.00600135
0.00661142
0.00729281
0.00880241
0.01131
0.0141278
0.0165358
0.0179734
0.0180815
0.016779
0.0142667
0.0106429
0.00734039
0.00484113
0.00333641
0.00256683
0.00220258
0.00201338
0.00189179
0.00179632
0.00171353
0.0016408
0.00157975
0.00153335
0.00150202
0.0014884
0.00149913
0.00154058
0.00162277
0.00178215
0.00213715
0.00299683
0.00504991
0.00993551
0.0156038
0.00885524
0.00444583
0.00629925
0.00812385
0.011042
0.0147149
0.0181667
0.0203902
0.0214427
0.0213678
0.0201579
0.0176332
0.0141739
0.0105196
0.00722551
0.00489665
0.00355136
0.00290027
0.00260141
0.00244752
0.00234836
0.00227056
0.00220197
0.00213965
0.00208646
0.00204975
0.00203992
0.00206737
0.00214107
0.00226615
0.00244207
0.00267012
0.00297352
0.00343399
0.00425818
0.00599599
0.0114577
0.0151294
0.00925203
0.0150697
0.0244346
0.0181014
0.0144125
0.0170405
0.0207357
0.0228589
0.0235487
0.0230808
0.0217165
0.0197017
0.0170682
0.0139093
0.0106002
0.00764442
0.00546874
0.00421943
0.00362189
0.00334994
0.003218
0.003151
0.00311692
0.0030965
0.00307616
0.00305022
0.00302425
0.00301447
0.0030413
0.00312017
0.00326215
0.00347272
0.00375657
0.00412624
0.0046203
0.00533397
0.00647289
0.00854683
0.0142733
0.0178723
0.00944951
0.0138072
0.0170477
0.0178781
0.0207878
0.021734
0.0221562
0.0211598
0.0193453
0.0172242
0.0150487
0.012921
0.0108898
0.0090064
0.00736804
0.00607552
0.00513693
0.00453164
0.00417098
0.00397561
0.00390046
0.00391714
0.00399986
0.00412074
0.00425189
0.00437118
0.00446899
0.00455241
0.00464284
0.00477066
0.00495956
0.00522996
0.00560484
0.00611822
0.00683073
0.00784233
0.0092744
0.0112993
0.0153012
0.0215107
0.00937143
0.0121406
0.00891239
0.00882716
0.00935157
0.0097993
0.00923414
0.00817809
0.0070303
0.00597319
0.00505255
0.00425957
0.00358286
0.00302988
0.00262128
0.00237015
0.00226128
0.00223116
0.00225145
0.00230619
0.00238396
0.00247516
0.00257186
0.00266836
0.00276174
0.00285201
0.00294199
0.00303674
0.00314237
0.00326486
0.00340979
0.00358435
0.00380141
0.00408463
0.00447327
0.00502039
0.0057782
0.00677539
0.00799942
0.00935851
0.00812478
)
;

boundaryField
{
    floor
    {
        type            kqRWallFunction;
        value           nonuniform List<scalar> 
36
(
0.00358609
0.000793032
0.00162452
0.00165089
0.00157191
0.0014442
0.00128214
0.00113022
0.000998674
0.000887001
0.000792485
0.000712763
0.000644766
0.000585799
0.000533317
0.000484607
0.00043617
0.000397905
0.000326058
0.000326058
0.000523925
0.00067788
0.000821313
0.00116845
0.00206216
0.00187188
0.00358609
0.00429808
0.00390704
0.00357975
0.000793032
0.00357975
0.00253576
0.00538497
0.00403749
0.00534296
)
;
    }
    ceiling
    {
        type            kqRWallFunction;
        value           nonuniform List<scalar> 
43
(
0.0121406
0.00891239
0.00882716
0.00935157
0.0097993
0.00923414
0.00817809
0.0070303
0.00597319
0.00505255
0.00425957
0.00358286
0.00302988
0.00262128
0.00237015
0.00226128
0.00223116
0.00225145
0.00230619
0.00238396
0.00247516
0.00257186
0.00266836
0.00276174
0.00285201
0.00294199
0.00303674
0.00314237
0.00326486
0.00340979
0.00358435
0.00380141
0.00408463
0.00447327
0.00502039
0.0057782
0.00677539
0.00799942
0.00935851
0.00812478
0.0108742
0.0117656
0.00444583
)
;
    }
    sWall
    {
        type            kqRWallFunction;
        value           nonuniform List<scalar> 9(0.0219175 0.0192339 0.0159509 0.0132675 0.0133476 0.0108742 0.0150697 0.0138072 0.0121406);
    }
    nWall
    {
        type            kqRWallFunction;
        value           nonuniform List<scalar> 
14
(
0.00187188
0.00266828
0.00372725
0.00864022
0.00881966
0.00887551
0.00812165
0.00749825
0.00769793
0.00885524
0.00925203
0.00944951
0.00937143
0.00812478
)
;
    }
    sideWalls
    {
        type            empty;
    }
    glass1
    {
        type            kqRWallFunction;
        value           nonuniform List<scalar> 9(0.00158588 0.00340686 0.00549052 0.00797305 0.0108755 0.0141736 0.0179902 0.0216389 0.0228317);
    }
    glass2
    {
        type            kqRWallFunction;
        value           nonuniform List<scalar> 2(0.00650538 0.00818545);
    }
    sun
    {
        type            kqRWallFunction;
        value           nonuniform List<scalar> 
14
(
0.00158588
0.0018011
0.00178804
0.00194667
0.00209798
0.00224033
0.00237707
0.00251272
0.00265308
0.00280641
0.0029566
0.00310281
0.00325023
0.00341254
)
;
    }
    Table_master
    {
        type            kqRWallFunction;
        value           nonuniform List<scalar> 9(0.00266309 0.00201344 0.00157445 0.00126864 0.00104886 0.000886686 0.000764461 0.000671704 0.000603533);
    }
    Table_slave
    {
        type            kqRWallFunction;
        value           nonuniform List<scalar> 9(0.00345479 0.00285769 0.00243449 0.00210857 0.00184933 0.00163103 0.00143775 0.00125782 0.00107695);
    }
    inlet
    {
        type            turbulentIntensityKineticEnergyInlet;
        intensity       0.05;
        value           uniform 0.0009375;
    }
    outlet
    {
        type            zeroGradient;
    }
}


// ************************************************************************* //
