/*--------------------------------*- C++ -*----------------------------------*\
  =========                 |
  \\      /  F ield         | OpenFOAM: The Open Source CFD Toolbox
   \\    /   O peration     | Website:  https://openfoam.org
    \\  /    A nd           | Version:  6
     \\/     M anipulation  |
\*---------------------------------------------------------------------------*/
FoamFile
{
    version     2.0;
    format      ascii;
    class       volScalarField;
    location    "3400";
    object      epsilon;
}
// * * * * * * * * * * * * * * * * * * * * * * * * * * * * * * * * * * * * * //

dimensions      [0 2 -3 0 0 0 0];

internalField   nonuniform List<scalar> 
778
(
0.000208997
0.000248013
0.000662645
0.000246726
0.00128456
0.001372
0.000278889
0.000231503
0.00369014
0.00244708
0.000309833
0.00021204
0.000320755
0.00811378
0.0039861
0.000339173
0.000212114
0.000198148
0.000562526
0.0150072
0.00606023
0.000367448
0.000215293
0.000187035
0.000193455
0.00110662
0.0241028
0.00884153
0.000395503
0.000221086
0.000187583
0.00016575
0.000202093
0.00220435
0.0330819
0.0119598
0.000424473
0.000230848
0.000192187
0.00016353
0.00014259
0.000244505
0.00416101
0.0399912
0.013126
0.000455978
0.00024635
0.000200555
0.000164702
0.000136177
0.000123894
0.000362452
0.00708797
0.0417395
0.0125158
0.000489257
0.000269886
0.000212886
0.000167775
0.000134067
0.000111227
0.000116795
0.000713747
0.0136104
0.0286284
0.0104545
0.000524026
0.000301769
0.000229603
0.000173129
0.000133312
0.000106223
9.31024e-05
0.000145974
0.00286131
0.0143367
0.0195333
0.00799264
0.000562485
0.000344222
0.000251683
0.000182208
0.000134833
0.000102723
8.52215e-05
8.9352e-05
0.000514756
0.00551672
0.0120488
0.0138534
0.00608064
0.000608994
0.000401806
0.00028189
0.0001972
0.000140964
0.000102168
7.9852e-05
7.56794e-05
0.000161675
0.00194555
0.00620572
0.00972089
0.0101407
0.00608115
0.000663855
0.000484586
0.000323834
0.000220799
0.000154605
0.000108448
7.88113e-05
6.86197e-05
0.000101388
0.000738452
0.003067
0.00590664
0.00780199
0.00777542
0.00449057
0.000624763
0.000384868
0.000255601
0.000177706
0.000125732
8.94697e-05
6.88465e-05
8.51994e-05
0.000350102
0.00158301
0.00352091
0.00531627
0.00688588
0.00503084
0.000867972
0.000476323
0.000304647
0.000211522
0.000153498
0.000116001
9.4331e-05
9.60348e-05
0.0002236
0.000909824
0.00217397
0.00356227
0.00480855
0.00561357
0.00080544
0.000588957
0.000369137
0.000257282
0.000190308
0.000152708
0.000134755
0.000138576
0.000217293
0.000609697
0.00143776
0.00245323
0.00341267
0.00415761
0.180436
0.000762693
0.000705408
0.000442209
0.000314523
0.000236422
0.000194704
0.000180042
0.00018787
0.000251054
0.000496029
0.00104063
0.0017672
0.00249157
0.00304581
0.0272213
0.00705238
0.00128504
0.000526387
0.000377053
0.00029248
0.000242703
0.00022566
0.000234912
0.000289231
0.000456196
0.000822484
0.00134405
0.00188185
0.00228248
0.00640391
0.00714452
0.0040724
0.000781991
0.000441659
0.00035425
0.000299904
0.00027408
0.000279157
0.000323443
0.000443243
0.000693654
0.00106628
0.00146903
0.00175433
0.00256005
0.00292777
0.00319423
0.00689612
0.0032146
0.00142738
0.000537851
0.000416415
0.000363112
0.000331129
0.000327433
0.000358213
0.000443217
0.000614786
0.000875397
0.00116509
0.001361
0.00138211
0.00152887
0.00257588
0.00338005
0.00504098
0.00415079
0.00222538
0.000640774
0.000627082
0.00047423
0.000424011
0.000396512
0.000387448
0.000404921
0.000461864
0.000577191
0.000754915
0.000956277
0.00108688
0.000961758
0.00141413
0.0030258
0.00328297
0.00240807
0.00469237
0.00250414
0.001033
0.000434954
0.000476862
0.000492486
0.000468801
0.000458621
0.000457221
0.000470754
0.000510336
0.000589183
0.000712522
0.000859653
0.000976712
0.000996371
0.00201222
0.00342622
0.00325783
0.00262107
0.00441919
0.000579673
0.000481765
0.000359394
0.000401078
0.000442313
0.000477281
0.000499061
0.000521024
0.000547731
0.000588393
0.000654552
0.000755274
0.000889023
0.00104988
0.00131387
0.00271752
0.00357375
0.00302462
0.00257241
0.000239942
0.000369989
0.000359243
0.000311134
0.00034629
0.000389245
0.00044423
0.000501311
0.000556521
0.000612436
0.000675155
0.000755293
0.000865877
0.00102348
0.00126615
0.00175266
0.00313796
0.00343361
0.00265582
0.0022821
0.000262374
0.000294669
0.000295396
0.000302535
0.000299078
0.000335213
0.000391038
0.000464079
0.00054779
0.000637726
0.000735649
0.000849694
0.000995568
0.00119963
0.0015231
0.00212521
0.00318027
0.00310338
0.00226035
0.00190198
0.000267901
0.000245077
0.000267943
0.000822842
0.00026365
0.000283577
0.000330149
0.000401431
0.000495657
0.000608666
0.000738483
0.000890126
0.00107738
0.00132939
0.00169797
0.00226931
0.00289152
0.00265608
0.00190071
0.00154459
0.000255592
0.000208162
0.000577041
0.000620305
0.00025793
0.000239142
0.000271273
0.000329303
0.000415709
0.000530647
0.00067351
0.000846404
0.00105972
0.00133281
0.00169936
0.00213673
0.00230742
0.00212882
0.00158972
0.00124759
0.000230719
0.000193601
0.000377587
0.000490293
0.000233304
0.000204904
0.000220993
0.000261007
0.000327677
0.000425101
0.00055557
0.000722081
0.000928741
0.00118555
0.00148807
0.00177702
0.00165282
0.00157747
0.00132368
0.00100861
0.000196597
0.000161757
0.000260509
0.00039691
0.000207271
0.0001776
0.000181819
0.00020453
0.000247815
0.000316812
0.000416193
0.000548436
0.000717163
0.00091587
0.00112827
0.00122575
0.00108632
0.0010987
0.00110333
0.000821762
0.000165017
0.000131965
0.000188364
0.00032752
0.0001839
0.000156101
0.000152853
0.000162209
0.000184823
0.000224728
0.000285891
0.000371745
0.000478878
0.000605565
0.000701978
0.000720118
0.000656283
0.000750805
0.000936817
0.000685554
0.000138681
0.000107313
0.000141794
0.000272688
0.000165065
0.000139041
0.000131862
0.000132479
0.000140144
0.000156953
0.000185444
0.000225844
0.000279698
0.000324458
0.000368627
0.000396323
0.000396397
0.000541239
0.000827115
0.00059709
0.000117265
8.76768e-05
0.000110493
0.000226985
0.000149168
0.000125736
0.000116419
0.000112197
0.000110722
0.000112661
0.000119138
0.000131152
0.000142466
0.000166407
0.000194229
0.000227028
0.000271478
0.000439338
0.000762774
0.00054767
0.000100031
7.21785e-05
8.87612e-05
0.000186936
0.000135148
0.000114913
0.000104901
9.81428e-05
9.21073e-05
8.61285e-05
8.14016e-05
7.87504e-05
8.2656e-05
9.47143e-05
0.000117954
0.000155602
0.000220736
0.0003963
0.000722811
0.00052481
8.6016e-05
5.98938e-05
7.34462e-05
0.000149243
0.000122381
0.000105691
9.58869e-05
8.82295e-05
8.02207e-05
7.10783e-05
6.18648e-05
5.53979e-05
5.59261e-05
6.49953e-05
8.66898e-05
0.000127391
0.000201515
0.000377082
0.000694793
0.000518667
7.44784e-05
5.01118e-05
6.29869e-05
8.94952e-05
0.00011007
9.74872e-05
8.83998e-05
8.08217e-05
7.25811e-05
6.27153e-05
5.23255e-05
4.49648e-05
4.3837e-05
5.13675e-05
7.24161e-05
0.000114657
0.000192984
0.000365452
0.000672294
0.000520003
6.48188e-05
4.26234e-05
4.80834e-05
5.90766e-05
8.96704e-05
8.97333e-05
8.18151e-05
7.48439e-05
6.72402e-05
5.81002e-05
4.81252e-05
4.02918e-05
3.80382e-05
4.40738e-05
6.39875e-05
0.000106902
0.000187749
0.000356097
0.000653032
0.000525037
5.6517e-05
3.81344e-05
4.08975e-05
0.000154726
6.86271e-05
7.99873e-05
7.56771e-05
6.96473e-05
6.30429e-05
5.51186e-05
4.63396e-05
3.87069e-05
3.52726e-05
3.95873e-05
5.77357e-05
0.000100581
0.000183566
0.000348271
0.000637563
0.000534044
4.90906e-05
3.63945e-05
0.000112915
0.000100164
0.000110907
6.91423e-05
6.92963e-05
6.48374e-05
5.9378e-05
5.27374e-05
4.52822e-05
3.8371e-05
3.4335e-05
3.67315e-05
5.24664e-05
9.4408e-05
0.000179581
0.0003425
0.000627897
0.000549083
4.19993e-05
6.99577e-05
7.53194e-05
0.000143973
8.20061e-05
6.33271e-05
6.01836e-05
5.5943e-05
5.0511e-05
4.42801e-05
3.82893e-05
3.42562e-05
3.52193e-05
4.79857e-05
8.78196e-05
0.000175052
0.000339117
0.000626496
0.000573007
3.63563e-05
5.20089e-05
0.000166118
0.000104269
6.70557e-05
5.63435e-05
5.26912e-05
4.82955e-05
4.30957e-05
3.80595e-05
3.44185e-05
3.47592e-05
4.47536e-05
8.08692e-05
0.000169138
0.000337582
0.000635443
0.000608494
2.68781e-05
0.000366009
0.000212717
8.03544e-05
5.82933e-05
5.03603e-05
4.62469e-05
4.17394e-05
3.7547e-05
3.45934e-05
3.49124e-05
4.35217e-05
7.4605e-05
0.000161355
0.000336304
0.000655654
0.000657087
0.000328325
0.00107031
0.000175783
7.24092e-05
5.44055e-05
4.5686e-05
4.06556e-05
3.68581e-05
3.4775e-05
3.57017e-05
4.40515e-05
7.1862e-05
0.000152616
0.000333168
0.000686241
0.000718502
0.000562806
0.00158889
0.00033494
9.76447e-05
5.78619e-05
4.27344e-05
3.67697e-05
3.52278e-05
3.74946e-05
4.69947e-05
7.37409e-05
0.00014679
0.000327247
0.000724245
0.000790602
0.000909816
0.00536191
0.000940876
0.000221642
7.91045e-05
4.29419e-05
3.71008e-05
4.10525e-05
5.3982e-05
8.21876e-05
0.000149501
0.00032211
0.00076491
0.000870189
0.00198176
0.0129772
0.00284984
0.000635089
0.00012797
4.75677e-05
4.81861e-05
6.76008e-05
0.000101713
0.000164003
0.000327542
0.000802234
0.000954403
0.00299436
0.0108739
0.00314692
0.000814903
0.000130266
6.60477e-05
9.18097e-05
0.000139174
0.000197857
0.000347446
0.000834639
0.00104233
0.00312696
0.00793873
0.00295589
0.000676205
0.000136096
0.000135219
0.000203678
0.000263505
0.000389446
0.000873069
0.00113624
0.00299688
0.0062907
0.00243707
0.000515752
0.00022931
0.000309642
0.000378932
0.000467445
0.000931673
0.00123603
0.00275251
0.00605287
0.00204201
0.000529134
0.000493869
0.000570862
0.00060342
0.00102715
0.0013485
0.00273761
0.00473897
0.00201949
0.000880392
0.000887809
0.000831781
0.00118121
0.00148443
0.00331848
0.00374329
0.00217875
0.00143415
0.00121299
0.00142661
0.00165532
0.00345791
0.0038985
0.00243313
0.00186852
0.00181746
0.00187129
0.0035233
0.0041284
0.00298012
0.00244452
0.00213635
0.00309659
0.00468588
0.00347401
0.00244083
0.0029814
0.00410243
0.00276999
0.00405564
0.00318312
0.0032906
)
;

boundaryField
{
    floor
    {
        Cmu             0.09;
        kappa           0.41;
        E               9.8;
        type            epsilonWallFunction;
        value           nonuniform List<scalar> 
36
(
0.000663855
0.000239942
0.000262374
0.000267901
0.000255592
0.000230719
0.000196597
0.000165017
0.000138681
0.000117265
0.000100031
8.6016e-05
7.44784e-05
6.48188e-05
5.6517e-05
4.90906e-05
4.19993e-05
3.63563e-05
2.68781e-05
2.68781e-05
5.20089e-05
7.53194e-05
0.000100164
0.000166118
0.000366009
0.000328325
0.000663855
0.000867972
0.00080544
0.000762693
0.000239942
0.000762693
0.000579673
0.00128504
0.001033
0.00142738
)
;
    }
    ceiling
    {
        Cmu             0.09;
        kappa           0.41;
        E               9.8;
        type            epsilonWallFunction;
        value           nonuniform List<scalar> 
43
(
0.00441919
0.00250414
0.00222538
0.00240807
0.00262107
0.00257241
0.0022821
0.00190198
0.00154459
0.00124759
0.00100861
0.000821762
0.000685554
0.00059709
0.00054767
0.00052481
0.000518667
0.000520003
0.000525037
0.000534044
0.000549083
0.000573007
0.000608494
0.000657087
0.000718502
0.000790602
0.000870189
0.000954403
0.00104233
0.00113624
0.00123603
0.0013485
0.00148443
0.00165532
0.00187129
0.00213635
0.00244083
0.00276999
0.00318312
0.0032906
0.00449057
0.00503084
0.00705238
)
;
    }
    sWall
    {
        Cmu             0.09;
        kappa           0.41;
        E               9.8;
        type            epsilonWallFunction;
        value           nonuniform List<scalar> 9(0.0125158 0.0104545 0.00799264 0.00608064 0.00608115 0.00449057 0.00504098 0.00469237 0.00441919);
    }
    nWall
    {
        Cmu             0.09;
        kappa           0.41;
        E               9.8;
        type            epsilonWallFunction;
        value           nonuniform List<scalar> 
14
(
0.000328325
0.000562806
0.000909816
0.00312696
0.00299688
0.00275251
0.00273761
0.00331848
0.00345791
0.0035233
0.00309659
0.0029814
0.00405564
0.0032906
)
;
    }
    sideWalls
    {
        type            empty;
    }
    glass1
    {
        Cmu             0.09;
        kappa           0.41;
        E               9.8;
        type            epsilonWallFunction;
        value           nonuniform List<scalar> 9(0.000208997 0.000662645 0.001372 0.00244708 0.0039861 0.00606023 0.00884153 0.0119598 0.013126);
    }
    glass2
    {
        Cmu             0.09;
        kappa           0.41;
        E               9.8;
        type            epsilonWallFunction;
        value           nonuniform List<scalar> 2(0.00198176 0.00299436);
    }
    sun
    {
        Cmu             0.09;
        kappa           0.41;
        E               9.8;
        type            epsilonWallFunction;
        value           nonuniform List<scalar> 
14
(
0.000208997
0.000248013
0.000246726
0.000278889
0.000309833
0.000339173
0.000367448
0.000395503
0.000424473
0.000455978
0.000489257
0.000524026
0.000562485
0.000608994
)
;
    }
    Table_master
    {
        Cmu             0.09;
        kappa           0.41;
        E               9.8;
        type            epsilonWallFunction;
        value           nonuniform List<scalar> 9(0.000577041 0.000377587 0.000260509 0.000188364 0.000141794 0.000110493 8.87612e-05 7.34462e-05 6.29869e-05);
    }
    Table_slave
    {
        Cmu             0.09;
        kappa           0.41;
        E               9.8;
        type            epsilonWallFunction;
        value           nonuniform List<scalar> 9(0.000822842 0.000620305 0.000490293 0.00039691 0.00032752 0.000272688 0.000226985 0.000186936 0.000149243);
    }
    inlet
    {
        type            turbulentMixingLengthDissipationRateInlet;
        mixingLength    0.00315;
        phi             phi;
        k               k;
        value           uniform 1.49737;
    }
    outlet
    {
        type            zeroGradient;
    }
}


// ************************************************************************* //
