/*--------------------------------*- C++ -*----------------------------------*\
  =========                 |
  \\      /  F ield         | OpenFOAM: The Open Source CFD Toolbox
   \\    /   O peration     | Website:  https://openfoam.org
    \\  /    A nd           | Version:  6
     \\/     M anipulation  |
\*---------------------------------------------------------------------------*/
FoamFile
{
    version     2.0;
    format      ascii;
    class       volScalarField;
    location    "570";
    object      k;
}
// * * * * * * * * * * * * * * * * * * * * * * * * * * * * * * * * * * * * * //

dimensions      [0 2 -2 0 0 0 0];

internalField   nonuniform List<scalar> 
458
(
0.00228243
0.00270527
0.00283056
0.00310866
0.00337649
0.00364051
0.00391492
0.00420309
0.00444594
0.00460138
0.00461783
0.00444934
0.00405145
0.00326438
0.00188826
0.000460468
0.000632593
0.000814232
0.000886899
0.000859913
0.00075262
0.000642262
0.000551005
0.000477679
0.000418273
0.000369657
0.000329592
0.000296016
0.000267028
0.000240927
0.000216075
0.000201749
0.000170277
0.00414206
0.00758596
0.0041852
0.00441323
0.00476057
0.00518616
0.00569029
0.00626257
0.00687354
0.00739008
0.00766548
0.0076035
0.0071878
0.00640095
0.00516757
0.00329137
0.00226729
0.00150775
0.000452188
0.000978055
0.00131464
0.00147318
0.00148866
0.00127243
0.00103417
0.000841312
0.000694244
0.000581572
0.000494023
0.000424286
0.000367025
0.000319371
0.000285092
0.000265702
0.000493043
0.000292702
0.00611715
0.0136957
0.00495197
0.00476658
0.00498841
0.00533954
0.00581264
0.00641267
0.00707403
0.00763654
0.00798154
0.00803708
0.00777312
0.00712584
0.00609321
0.00493673
0.0039566
0.00211062
0.00106691
0.00140484
0.00161555
0.00174756
0.00174209
0.00136148
0.00104279
0.000809974
0.000642931
0.000522168
0.000433521
0.00036752
0.000318136
0.000282201
0.000263216
0.000266407
0.000778591
0.000408126
0.00838245
0.0222941
0.00597417
0.00474774
0.00479117
0.00506805
0.00553557
0.00624287
0.00697445
0.00755124
0.00792783
0.00804835
0.00783346
0.00721926
0.00635151
0.0054928
0.0046807
0.00353178
0.00279674
0.00252454
0.00239327
0.00236131
0.00231611
0.00217925
0.00173163
0.00145431
0.00127856
0.00115565
0.00105639
0.000962683
0.000877685
0.000792185
0.000697911
0.000532275
0.000423908
0.00113047
0.000541124
0.011066
0.0340249
0.00848868
0.00479338
0.00452713
0.00476029
0.00536853
0.00644141
0.00727135
0.00783089
0.00819432
0.00829741
0.00799008
0.00725822
0.0062807
0.00536694
0.00463149
0.00402129
0.00383087
0.00351633
0.00329087
0.00311071
0.00289961
0.00262854
0.00233624
0.0021352
0.00201089
0.00191245
0.00180699
0.00167466
0.00150263
0.00130707
0.0010991
0.000868514
0.00066619
0.000922003
0.00106024
0.000966954
0.00108456
0.00128185
0.0143522
0.046765
0.0150512
0.005988
0.00479975
0.00484925
0.00580976
0.00737371
0.00812796
0.00857391
0.00884665
0.00885665
0.00841648
0.00745593
0.0061875
0.00502202
0.00423624
0.00389205
0.00386449
0.00387503
0.00378539
0.00356229
0.00324011
0.00288034
0.00258632
0.00242737
0.00234831
0.00228493
0.00220246
0.00207872
0.00188877
0.00165671
0.00140597
0.00115056
0.000938179
0.000902046
0.00102947
0.00105337
0.00164991
0.00137931
0.0179977
0.0551234
0.0271937
0.0124826
0.00842833
0.00754764
0.00865277
0.00932933
0.00959404
0.00975824
0.00985297
0.00970709
0.00905222
0.00778826
0.00617065
0.00475268
0.00394118
0.00379272
0.00395816
0.00404524
0.003916
0.00360976
0.00322446
0.00285742
0.00260452
0.00249835
0.0024755
0.00247568
0.00246902
0.00243478
0.00234309
0.00215332
0.00191641
0.00166435
0.00146233
0.00136924
0.00145495
0.00168508
0.00223689
0.00195002
0.0189582
0.0568329
0.0383446
0.0272684
0.0198868
0.0160626
0.0138661
0.0124037
0.0116498
0.0113415
0.0111562
0.0107538
0.00976021
0.00807163
0.00602779
0.00444182
0.00373204
0.00371397
0.0038414
0.00381275
0.00357629
0.0032236
0.00286571
0.00258745
0.00243689
0.00240595
0.00244833
0.00253022
0.0026395
0.00277363
0.00292998
0.00307019
0.00311373
0.00314515
0.00329978
0.00387797
0.00512821
0.00682191
0.0128234
0.00467334
0.0182167
0.0264702
0.0243614
0.0217113
0.0188995
0.016491
0.0147004
0.0136683
0.0132047
0.0129293
0.012543
0.0117645
0.0101803
0.00782517
0.0051875
0.00389713
0.00344625
0.0033564
0.00330064
0.00313764
0.00286542
0.00256344
0.0023108
0.00215521
0.00210391
0.00213391
0.00221721
0.00233846
0.00249374
0.00268406
0.00291072
0.00317181
0.00349035
0.00390163
0.0044476
0.00509534
0.00569232
0.00606326
0.00624242
0.004078
0.00715007
0.0110528
0.0135303
0.0148195
0.0155456
0.0158771
0.0155948
0.0147034
0.0134478
0.0117405
0.00882266
0.00584576
0.0040271
0.00322799
0.00289034
0.00271143
0.00253836
0.00232589
0.00209658
0.00189023
0.00175039
0.0016888
0.00169221
0.00174167
0.00182402
0.0019341
0.00207315
0.00224764
0.00247008
0.00276364
0.00312938
0.00356532
0.0040491
0.00448832
0.0047106
0.00457219
0.0041082
0.00264086
0.00805063
0.0195827
0.021823
0.0217707
0.0210282
0.0187542
0.0155953
0.0121967
0.0089517
0.00626606
0.00433437
0.00323373
0.00268167
0.00237427
0.00217052
0.00199138
0.00180665
0.00162505
0.00147238
0.00136726
0.0013107
0.00130258
0.0013348
0.00140155
0.00150119
0.00163514
0.00180677
0.00202049
0.00228706
0.00261614
0.00301657
0.00348922
0.00400772
0.00450433
0.00480774
0.00509078
0.00429137
0.00271039
0.00891374
0.00936259
0.00977884
0.0121085
0.0108135
0.00848818
0.00606805
0.00442792
0.00353315
0.00276635
0.00216162
0.00174024
0.00141622
0.00119628
0.00105579
0.000958846
0.000884189
0.000822441
0.000773298
0.000741209
0.000729705
0.000738858
0.000766443
0.00080738
0.000860292
0.00092492
0.00100197
0.00109314
0.00120148
0.00133243
0.00148941
0.00167442
0.00189185
0.00214669
0.00244363
0.0028249
0.00299889
0.0028765
0.00248881
0.00212889
)
;

boundaryField
{
    floor
    {
        type            kqRWallFunction;
        value           nonuniform List<scalar> 
36
(
0.00188826
0.000460468
0.000632593
0.000814232
0.000886899
0.000859913
0.00075262
0.000642262
0.000551005
0.000477679
0.000418273
0.000369657
0.000329592
0.000296016
0.000267028
0.000240927
0.000216075
0.000201749
0.000170277
0.000170277
0.000292702
0.000408126
0.000541124
0.000966954
0.00108456
0.00128185
0.00188826
0.00329137
0.00226729
0.00150775
0.000460468
0.00150775
0.000452188
0.00211062
0.00106691
0.00279674
)
;
    }
    ceiling
    {
        type            kqRWallFunction;
        value           nonuniform List<scalar> 
43
(
0.00891374
0.00936259
0.00977884
0.0121085
0.0108135
0.00848818
0.00606805
0.00442792
0.00353315
0.00276635
0.00216162
0.00174024
0.00141622
0.00119628
0.00105579
0.000958846
0.000884189
0.000822441
0.000773298
0.000741209
0.000729705
0.000738858
0.000766443
0.00080738
0.000860292
0.00092492
0.00100197
0.00109314
0.00120148
0.00133243
0.00148941
0.00167442
0.00189185
0.00214669
0.00244363
0.0028249
0.00299889
0.0028765
0.00248881
0.00212889
0.0182167
0.0264702
0.00805063
)
;
    }
    sWall
    {
        type            kqRWallFunction;
        value           uniform 0.00891374;
    }
    nWall
    {
        type            kqRWallFunction;
        value           nonuniform List<scalar> 6(0.00128185 0.00137931 0.00195002 0.00264086 0.00271039 0.00212889);
    }
    sideWalls
    {
        type            empty;
    }
    glass1
    {
        type            kqRWallFunction;
        value           nonuniform List<scalar> 9(0.00228243 0.00414206 0.00611715 0.00838245 0.011066 0.0143522 0.0179977 0.0189582 0.0182167);
    }
    glass2
    {
        type            kqRWallFunction;
        value           nonuniform List<scalar> 2(0.00467334 0.004078);
    }
    sun
    {
        type            kqRWallFunction;
        value           nonuniform List<scalar> 
14
(
0.00228243
0.00270527
0.00283056
0.00310866
0.00337649
0.00364051
0.00391492
0.00420309
0.00444594
0.00460138
0.00461783
0.00444934
0.00405145
0.00326438
)
;
    }
    Table_master
    {
        type            kqRWallFunction;
        value           nonuniform List<scalar> 9(0.00136148 0.00104279 0.000809974 0.000642931 0.000522168 0.000433521 0.00036752 0.000318136 0.000282201);
    }
    Table_slave
    {
        type            kqRWallFunction;
        value           nonuniform List<scalar> 9(0.00173163 0.00145431 0.00127856 0.00115565 0.00105639 0.000962683 0.000877685 0.000792185 0.000697911);
    }
    inlet
    {
        type            turbulentIntensityKineticEnergyInlet;
        intensity       0.05;
        value           uniform 0.000937501;
    }
    outlet
    {
        type            zeroGradient;
    }
}


// ************************************************************************* //
