/*--------------------------------*- C++ -*----------------------------------*\
  =========                 |
  \\      /  F ield         | OpenFOAM: The Open Source CFD Toolbox
   \\    /   O peration     | Website:  https://openfoam.org
    \\  /    A nd           | Version:  6
     \\/     M anipulation  |
\*---------------------------------------------------------------------------*/
FoamFile
{
    version     2.0;
    format      ascii;
    class       surfaceScalarField;
    location    "570";
    object      phi;
}
// * * * * * * * * * * * * * * * * * * * * * * * * * * * * * * * * * * * * * //

dimensions      [1 0 -1 0 0 0 0];

internalField   nonuniform List<scalar> 
850
(
-0.00305599
0.00311638
-0.0041537
0.00109771
-0.00502465
0.000870941
-0.0057136
0.000688957
-0.00618433
0.000470728
-0.00640276
0.000218429
-0.00632914
-7.36238e-05
-0.00591949
-0.000409648
-0.00516297
-0.000756528
-0.00411228
-0.00105068
-0.00288034
-0.00123195
-0.00162075
-0.00125958
-0.000521164
-0.00109959
0.000143876
-0.000665041
0.000146216
-0.000924739
0.000928377
-0.000695492
-0.000229249
-6.82347e-05
-0.000627259
0.00053663
-0.000604867
0.000998324
-0.000461695
0.00125676
-0.000258442
0.00136598
-0.000109216
0.00141959
-5.36122e-05
0.00145077
-3.11846e-05
0.00146645
-1.56798e-05
0.00147047
-4.0249e-06
0.00146403
6.44632e-06
0.00144138
2.26431e-05
0.00138343
5.79533e-05
0.00125791
0.000125519
0.00105408
0.000203821
0.000795079
0.000259002
0.000799891
-0.00220904
0.00548865
-0.00329905
0.00218772
-0.00421281
0.0017847
-0.00491012
0.00138627
-0.00539008
0.000950685
-0.00563024
0.000458586
-0.00558998
-0.000113888
-0.00523022
-0.000769404
-0.00455113
-0.00143562
-0.00362272
-0.00197909
-0.00256572
-0.00228895
-0.00151942
-0.00230589
-0.00060912
-0.00200989
0.000110198
-0.00138436
0.000888791
-0.000632378
0.00115691
-0.000264356
0.000958016
0.000203232
0.000970643
3.4909e-05
0.000904421
0.000416081
-0.000610422
0.000784283
-0.000995463
0.00109873
-0.000919317
0.00135042
-0.000713389
0.0014072
-0.000315221
0.0014154
-0.000117418
0.00142614
-6.43503e-05
0.00143523
-4.02759e-05
0.00144053
-2.09846e-05
0.00144295
-6.44458e-06
0.00144264
6.75445e-06
0.00143723
2.8049e-05
0.00140081
9.43707e-05
0.00124813
0.000278201
0.000979849
0.000472099
0.000645445
0.000593404
0.00145766
-0.00156264
0.00730148
-0.00251107
0.00313616
-0.00334309
0.00261672
-0.00396454
0.00200772
-0.0044102
0.00139635
-0.00465592
0.000704302
-0.00464596
-0.000123842
-0.00431874
-0.00109663
-0.00369211
-0.00206225
-0.00286445
-0.00280675
-0.00196117
-0.00319223
-0.0010983
-0.00316876
-0.000351529
-0.00275666
0.000262165
-0.00199805
0.00077141
-0.00114162
0.00091566
-0.000408607
0.000719669
0.000399222
0.0017015
0.00143863
-0.0005204
0.00163588
-0.00080768
0.00157958
-0.000939158
0.00161338
-0.000953123
0.00181696
-0.000916963
0.00150189
0.00138462
0.00132042
0.0012803
0.00125947
0.00125318
0.00126008
0.00128828
0.00138281
0.0011562
0.000504804
0.000868165
0.000760132
0.000498493
0.000963074
0.00197466
-0.00109483
0.00872071
-0.00185039
0.00389171
-0.00243309
0.00319942
-0.00287717
0.0024518
-0.0032197
0.00173887
-0.0034295
0.000914107
-0.0034265
-0.000126845
-0.00310103
-0.0014221
-0.00252112
-0.00264216
-0.00181778
-0.00351009
-0.00110227
-0.00390774
-0.000454362
-0.00381667
8.99154e-05
-0.00330093
0.000549661
-0.0024578
0.000924105
-0.00151607
0.00113993
-0.000624437
0.00132481
0.000214341
0.00228195
0.000744371
0.00218464
0.000109177
0.00201434
-0.000350105
0.00192589
-0.00071923
0.00181201
-0.000825277
0.00167693
-0.000818044
0.00144276
-0.000682795
0.00176554
-0.000322929
0.00194147
-0.000176091
0.00207036
-0.000129048
0.002169
-9.87936e-05
0.00222717
-5.83273e-05
0.00222299
4.02615e-06
0.002129
9.38327e-05
0.00190887
0.000219975
0.00150269
0.000406025
0.00126532
0.000742174
0.000899027
0.00112643
0.000383783
0.00147832
0.002382
-0.000755112
0.00986327
-0.00132379
0.00446039
-0.00150404
0.00337967
-0.0016794
0.00262716
-0.00184058
0.00190004
-0.00194567
0.0010192
-0.00189229
-0.00018022
-0.00152743
-0.00178697
-0.00102463
-0.00314497
-0.000507106
-0.00402762
-4.44475e-05
-0.0043704
0.000331657
-0.00419278
0.000621048
-0.00359033
0.000872423
-0.00270918
0.0010902
-0.00173385
0.00129663
-0.000830868
0.00160668
-9.57071e-05
0.00205003
0.000301021
0.00208293
7.62736e-05
0.00201462
-0.00028179
0.00182881
-0.000533429
0.00163836
-0.000634821
0.00145809
-0.000637777
0.00132609
-0.000550797
0.001382
-0.00037884
0.00146735
-0.000261446
0.0015491
-0.000210796
0.00162813
-0.000177831
0.00169638
-0.000126578
0.00173403
-3.36289e-05
0.00171721
0.000110649
0.00163098
0.000306205
0.0014794
0.000557599
0.0013242
0.000897377
0.00114639
0.00130424
0.000801564
0.00182314
0.00102039
0.00216317
-0.00109147
0.0021329
-0.00178926
0.000717317
-0.00171669
-0.000637932
0.0109417
-0.00101104
0.0048335
-0.000627923
0.00299655
-0.000438375
0.00243761
-0.000368074
0.00182974
-0.000280723
0.000931845
-2.08477e-05
-0.000440097
0.000368294
-0.00217611
0.000725493
-0.00350216
0.000982741
-0.00428486
0.00112201
-0.00450966
0.00116947
-0.00424024
0.00116093
-0.00358178
0.00113562
-0.00268387
0.00111838
-0.00171661
0.00114931
-0.0008618
0.00128551
-0.000231917
0.00149965
8.68806e-05
0.00155071
2.52163e-05
0.00145185
-0.000182935
0.00127594
-0.00035752
0.00109386
-0.00045274
0.000933547
-0.000477465
0.000825365
-0.000442617
0.000811648
-0.000365124
0.000858401
-0.000308202
0.00093222
-0.000284617
0.00102107
-0.000266687
0.00111847
-0.000223973
0.0012144
-0.000129564
0.00128695
3.80987e-05
0.00132446
0.00026869
0.00134072
0.000541336
0.00137583
0.000862265
0.00147733
0.00120273
0.00168169
0.00161878
0.00203413
0.00181073
0.00233465
0.00183238
0.0018285
0.00122346
0.000177089
-0.000760477
0.0121892
-0.000616753
0.00468977
0.000499007
0.00188079
0.000973297
0.00196332
0.00123858
0.00156446
0.00163039
0.000540028
0.00214047
-0.000950171
0.00247453
-0.00251017
0.00260613
-0.00363377
0.00253391
-0.00421264
0.00229532
-0.00427107
0.00195391
-0.00389884
0.00157343
-0.00320131
0.00121218
-0.00232261
0.000906706
-0.00141114
0.000714316
-0.000669411
0.00066238
-0.000179982
0.000713472
3.57876e-05
0.000721372
1.73141e-05
0.00064435
-0.000105914
0.000515612
-0.000228784
0.000373353
-0.000310483
0.000245187
-0.000349301
0.000156846
-0.000354279
0.000131983
-0.000340263
0.000159499
-0.00033572
0.000218004
-0.000343124
0.000297691
-0.000346377
0.000399405
-0.00032569
0.000528119
-0.000258281
0.00068074
-0.000114525
0.00083868
0.000110748
0.00100138
0.000378632
0.00120392
0.00065972
0.00147907
0.000927576
0.00187969
0.00121816
0.00241381
0.00127661
0.00318079
0.00106539
0.00335631
0.00104794
0.00360201
0.00274018
0.00999212
0.00339853
0.00403142
0.00346157
0.00181775
0.00355569
0.00186919
0.00377707
0.00134308
0.0042627
5.43956e-05
0.00473446
-0.00142193
0.00482407
-0.00259978
0.00454212
-0.00335182
0.00398012
-0.00365064
0.003241
-0.00353195
0.00243028
-0.00308811
0.00162914
-0.00240018
0.000921196
-0.00161466
0.000345519
-0.000835464
-3.63402e-06
-0.000320259
-0.000140985
-4.26328e-05
-0.000154507
4.93078e-05
-0.000162036
2.48407e-05
-0.00021452
-5.3432e-05
-0.000306099
-0.000137207
-0.000413302
-0.000203283
-0.000513497
-0.000249108
-0.000588406
-0.000279374
-0.000626668
-0.000302003
-0.000635819
-0.000326572
-0.000627645
-0.000351301
-0.000606708
-0.000367317
-0.000568215
-0.000364185
-0.000495933
-0.000330566
-0.000358692
-0.000251769
-0.00014911
-9.88366e-05
0.000101284
0.000128235
0.000385728
0.000375274
0.000703791
0.00060951
0.00108546
0.000836485
0.00150254
0.000859533
0.00189391
0.000674013
0.00120369
0.00173817
0.00509137
0.0105908
0.014618
0.0125681
0.00386768
0.0112532
0.00318411
0.0103808
0.00221546
0.00957581
0.00085937
0.00856552
-0.000411636
0.00737641
-0.00141068
0.00609182
-0.00206723
0.00476001
-0.00231883
0.00341906
-0.002191
0.00214922
-0.00181827
0.00099072
-0.00124168
3.82554e-05
-0.000662201
-0.000581228
-0.000215983
-0.000871734
-2.97556e-05
-0.000966585
5.22162e-05
-0.000984179
6.6899e-05
-0.000998425
3.90843e-05
-0.00104133
-1.05273e-05
-0.0011135
-6.50435e-05
-0.00120215
-0.000114632
-0.00129333
-0.000157932
-0.00137806
-0.000194646
-0.00145409
-0.00022598
-0.0015283
-0.000252365
-0.00161007
-0.000269536
-0.00170817
-0.000269212
-0.00183237
-0.00023999
-0.00199557
-0.000167373
-0.00221316
-3.41808e-05
-0.00247948
0.000167483
-0.00280373
0.000452479
-0.00326758
0.00083912
-0.00398367
0.0013256
-0.00502307
0.00187589
-0.00650718
0.00234363
-0.00824261
0.00240944
-0.00775969
0.00125524
-0.00235218
0.00895329
0.00557441
0.0074735
0.0046639
0.00707775
0.00261122
0.00672418
0.00121294
0.00610792
0.000204635
0.00522512
-0.000527872
0.00414695
-0.000989058
0.00293927
-0.00111115
0.00164305
-0.000894779
0.000383396
-0.000558626
-0.000649808
-0.000208476
-0.00130162
-1.03954e-05
-0.001587
6.93961e-05
-0.00169735
8.05923e-05
-0.00172452
7.93855e-05
-0.00172864
7.10102e-05
-0.00174243
5.28778e-05
-0.00177974
2.67751e-05
-0.00184215
-2.63605e-06
-0.00192252
-3.42625e-05
-0.00201247
-6.79842e-05
-0.00210988
-9.72441e-05
-0.00221616
-0.000119696
-0.00233486
-0.000133669
-0.00246823
-0.000136171
-0.0026153
-0.000122144
-0.00277077
-8.45216e-05
-0.00292248
-1.56672e-05
-0.00305509
9.84237e-05
-0.003167
0.00027939
-0.00326808
0.000553563
-0.00336986
0.000940889
-0.00347867
0.00143441
-0.00356162
0.00195884
-0.00355912
0.00234113
-0.00329987
0.00215019
-0.00194148
-0.000103148
-0.0042106
-0.000829229
0.00645706
0.000723721
0.00311096
0.00137299
0.00196196
0.0015956
0.000990336
0.00151838
0.000281856
0.00113813
-0.000147623
0.000447554
-0.000298485
-0.000443381
-0.00022022
-0.00130652
-3.16415e-05
-0.00193759
7.24439e-05
-0.00226427
0.000118199
-0.00238737
0.000112696
-0.00240516
8.71866e-05
-0.00239248
6.7908e-05
-0.00236986
5.67602e-05
-0.00234803
4.91777e-05
-0.0023358
4.06451e-05
-0.00233839
2.93644e-05
-0.0023563
1.52754e-05
-0.00238782
-2.75271e-06
-0.00243386
-2.19469e-05
-0.00249262
-3.84896e-05
-0.00256216
-5.01549e-05
-0.00263997
-5.586e-05
-0.002722
-5.41463e-05
-0.00280166
-4.24846e-05
-0.00286945
-1.67338e-05
-0.00291288
2.77549e-05
-0.00291146
9.70063e-05
-0.00284025
0.000208173
-0.00266473
0.000378046
-0.00235357
0.000629723
-0.00189862
0.000979453
-0.00128507
0.00134529
-0.00029714
0.00135319
0.00114668
0.00070637
0.00164102
-0.00059749
-0.00247818
-0.0120282
-0.0155601
-0.00906264
-0.00592439
-0.00394037
-0.00293174
-0.00263524
-0.00277122
-0.00306012
-0.00327218
-0.00329649
-0.00321709
-0.0030921
-0.00297265
-0.00287871
-0.00280403
-0.00274049
-0.0026845
-0.00263701
-0.00260076
-0.00257861
-0.00257451
-0.00258969
-0.0026215
-0.0026651
-0.00271453
-0.0027624
-0.00279877
-0.00280957
-0.00277606
-0.0026735
-0.00245999
-0.00207684
-0.00144227
-0.00045825
0.000891234
0.00224833
0.00295852
0.00236496
)
;

boundaryField
{
    floor
    {
        type            calculated;
        value           nonuniform List<scalar> 
36
(
0
0
0
0
0
0
0
0
0
0
0
0
0
0
0
0
0
0
0
-4.81368e-06
-1.23304e-05
-1.85055e-05
-2.356e-05
-2.10371e-05
-1.95332e-05
-1.83713e-05
-2.34092e-06
-3.76574e-06
-4.33672e-06
-5.02058e-06
-3.63917e-06
-7.60763e-06
-1.09547e-05
-1.11936e-05
-1.38073e-05
-1.18716e-05
)
;
    }
    ceiling
    {
        type            calculated;
        value           nonuniform List<scalar> 
43
(
-4.17746e-05
-4.11063e-05
-4.04051e-05
-2.72944e-05
-2.20679e-05
-1.82954e-05
-1.46529e-05
-1.16424e-05
-9.58711e-06
-8.16484e-06
-7.34027e-06
-6.95607e-06
-6.79759e-06
-6.75779e-06
-6.75731e-06
-6.76611e-06
-6.78442e-06
-6.81571e-06
-6.85428e-06
-6.88312e-06
-6.8839e-06
-6.8478e-06
-6.77617e-06
-6.67884e-06
-6.56113e-06
-6.42689e-06
-6.27866e-06
-6.11784e-06
-5.9446e-06
-5.75693e-06
-5.55443e-06
-5.33755e-06
-5.1045e-06
-4.85172e-06
-4.57176e-06
-4.19332e-06
-3.91236e-06
-3.81662e-06
-3.93386e-06
-3.34095e-06
6.95483e-06
4.19456e-06
-5.3419e-05
)
;
    }
    sWall
    {
        type            calculated;
        value           uniform -0.000241237;
    }
    nWall
    {
        type            calculated;
        value           nonuniform List<scalar> 6(-5.41962e-05 -6.52849e-05 -6.86139e-05 -8.30677e-05 -9.13938e-05 -0.000109888);
    }
    sideWalls
    {
        type            empty;
        value           nonuniform 0();
    }
    glass1
    {
        type            calculated;
        value           nonuniform List<scalar> 9(-6.03882e-05 -0.000163236 -0.000250197 -0.000324393 -0.000387451 -0.000440503 -0.000487029 -0.000543091 -0.000605621);
    }
    glass2
    {
        type            calculated;
        value           nonuniform List<scalar> 2(-0.000285677 -0.000316144);
    }
    sun
    {
        type            calculated;
        value           uniform 0;
    }
    Table_master
    {
        type            calculated;
        value           nonuniform List<scalar> 9(-1.53631e-07 -1.53781e-07 -1.53831e-07 -1.53861e-07 -1.53882e-07 -1.53894e-07 -1.53898e-07 -1.53892e-07 -1.53862e-07);
    }
    Table_slave
    {
        type            calculated;
        value           nonuniform List<scalar> 9(1.53519e-07 1.53504e-07 1.53458e-07 1.5342e-07 1.53398e-07 1.53398e-07 1.53404e-07 1.53442e-07 1.53525e-07);
    }
    inlet
    {
        type            calculated;
        value           uniform -0.01066;
    }
    outlet
    {
        type            calculated;
        value           nonuniform List<scalar> 2(0.0123112 0.00357302);
    }
}


// ************************************************************************* //
