/*--------------------------------*- C++ -*----------------------------------*\
  =========                 |
  \\      /  F ield         | OpenFOAM: The Open Source CFD Toolbox
   \\    /   O peration     | Website:  https://openfoam.org
    \\  /    A nd           | Version:  6
     \\/     M anipulation  |
\*---------------------------------------------------------------------------*/
FoamFile
{
    version     2.0;
    format      ascii;
    class       volVectorField;
    location    "570";
    object      U;
}
// * * * * * * * * * * * * * * * * * * * * * * * * * * * * * * * * * * * * * //

dimensions      [0 1 -1 0 0 0 0];

internalField   nonuniform List<vector> 
458
(
(0.0344023 0.088623 0)
(-0.17229 0.0267063 0)
(-0.199754 0.0191376 0)
(-0.233665 0.0130555 0)
(-0.258811 0.00634814 0)
(-0.273923 -0.000908951 0)
(-0.27688 -0.00892231 0)
(-0.265401 -0.0179657 0)
(-0.239077 -0.0276358 0)
(-0.199114 -0.0363093 0)
(-0.149666 -0.0422016 0)
(-0.0969815 -0.0437156 0)
(-0.0479579 -0.0390123 0)
(-0.00554799 -0.0232423 0)
(-0.00982149 0.00999943 0)
(-0.0105683 0.0106165 0)
(-0.0374592 -0.0173483 0)
(-0.0147141 -0.0290071 0)
(0.0133385 -0.0252526 0)
(0.0332684 -0.0179715 0)
(0.0479435 -0.00959875 0)
(0.0567611 -0.00520052 0)
(0.0606889 -0.00365108 0)
(0.0621626 -0.00310337 0)
(0.0628429 -0.00277666 0)
(0.0631754 -0.00252127 0)
(0.0631342 -0.00225618 0)
(0.0625598 -0.00181575 0)
(0.0609936 -0.000859127 0)
(0.0574137 0.00105374 0)
(0.0507049 0.0031655 0)
(0.045194 0.00514223 0)
(-0.0137607 0.0220016 0)
(0.21362 0.182047 0)
(-0.16213 0.0712665 0)
(-0.163146 0.0578614 0)
(-0.198856 0.045746 0)
(-0.224292 0.0319025 0)
(-0.240175 0.0159959 0)
(-0.244509 -0.00269474 0)
(-0.234793 -0.0243433 0)
(-0.2113 -0.0465731 0)
(-0.175705 -0.0652775 0)
(-0.132438 -0.0766549 0)
(-0.0871771 -0.078247 0)
(-0.0453806 -0.0685623 0)
(-0.00913813 -0.045535 0)
(0.0200367 -0.0129646 0)
(0.0448211 0.00804776 0)
(0.0550743 0.0347401 0)
(-0.0114136 0.0705135 0)
(0.0663879 0.0441685 0)
(0.0100242 -0.0219257 0)
(0.0264608 -0.0379803 0)
(0.0406924 -0.0357641 0)
(0.0531244 -0.0274863 0)
(0.0595577 -0.012185 0)
(0.061186 -0.00280446 0)
(0.0612421 0.000709934 0)
(0.0614103 0.00198248 0)
(0.061739 0.00268799 0)
(0.0619691 0.00319077 0)
(0.0620347 0.00364429 0)
(0.0619345 0.00437536 0)
(0.061225 0.00617562 0)
(0.057833 0.011193 0)
(0.0491565 0.0155329 0)
(0.047628 0.0188088 0)
(-0.0579419 0.0476357 0)
(0.378709 0.273142 0)
(-0.179856 0.114067 0)
(-0.123576 0.094204 0)
(-0.159188 0.072397 0)
(-0.182533 0.0493355 0)
(-0.198248 0.0233373 0)
(-0.203722 -0.00699579 0)
(-0.194794 -0.0415864 0)
(-0.172776 -0.0763992 0)
(-0.140434 -0.104146 0)
(-0.102767 -0.119237 0)
(-0.064832 -0.119163 0)
(-0.0308404 -0.103842 0)
(-0.00130175 -0.0738451 0)
(0.0228839 -0.0396346 0)
(0.0383613 -0.0148209 0)
(0.0437637 0.0135849 0)
(-0.0225225 0.0626725 0)
(0.122205 -0.00711679 0)
(0.0726632 -0.0319832 0)
(0.0645366 -0.0420045 0)
(0.0674777 -0.041907 0)
(0.0720942 -0.038221 0)
(0.0736693 -0.0283804 0)
(0.0644788 -0.0184302 0)
(0.0574725 -0.0130944 0)
(0.0548374 -0.0101313 0)
(0.0541146 -0.00822212 0)
(0.0538533 -0.00692545 0)
(0.0538949 -0.00593061 0)
(0.0546651 -0.00478289 0)
(0.0570861 -0.00142409 0)
(0.0559749 0.0149551 0)
(0.0444991 0.0258521 0)
(0.0539288 0.0333377 0)
(-0.0988689 0.0728953 0)
(0.529109 0.346828 0)
(-0.21621 0.152074 0)
(-0.0801781 0.125889 0)
(-0.115344 0.0961962 0)
(-0.133144 0.0669605 0)
(-0.146553 0.0333233 0)
(-0.151934 -0.00776694 0)
(-0.141736 -0.0559228 0)
(-0.120208 -0.103137 0)
(-0.0917794 -0.138459 0)
(-0.0613228 -0.155745 0)
(-0.0324169 -0.153377 0)
(-0.00769402 -0.133009 0)
(0.0138615 -0.0973949 0)
(0.0314015 -0.0584496 0)
(0.045272 -0.0224091 0)
(0.0607789 0.0136056 0)
(0.0598634 0.0539128 0)
(0.101254 0.0614448 0)
(0.0996232 -0.00224599 0)
(0.0859368 -0.0292983 0)
(0.079141 -0.0377342 0)
(0.0741496 -0.03849 0)
(0.0674242 -0.0342076 0)
(0.0669054 -0.020875 0)
(0.0775258 -0.0138274 0)
(0.0864244 -0.0100838 0)
(0.0917366 -0.00778976 0)
(0.0948851 -0.00587876 0)
(0.0962045 -0.00382086 0)
(0.0943757 -0.00116254 0)
(0.0880776 0.00249795 0)
(0.0755191 0.00774836 0)
(0.0596069 0.0250603 0)
(0.0439071 0.0405323 0)
(0.0627242 0.0533351 0)
(-0.130841 0.0943654 0)
(0.661703 0.40394 0)
(-0.261767 0.182922 0)
(-0.035006 0.145232 0)
(-0.0684197 0.111123 0)
(-0.0775075 0.0788501 0)
(-0.0857309 0.0406806 0)
(-0.0882147 -0.00881058 0)
(-0.0727777 -0.0699862 0)
(-0.052191 -0.126866 0)
(-0.0302397 -0.165727 0)
(-0.0100102 -0.182125 0)
(0.00735058 -0.175812 0)
(0.0203921 -0.151027 0)
(0.0313599 -0.113943 0)
(0.0411564 -0.0723663 0)
(0.0503492 -0.0331853 0)
(0.0628026 0.00116753 0)
(0.0768896 0.0201872 0)
(0.0911533 -0.000161095 0)
(0.0904811 -0.0210881 0)
(0.0833597 -0.0298785 0)
(0.0744678 -0.0324763 0)
(0.0660963 -0.0315837 0)
(0.0590078 -0.026579 0)
(0.0570893 -0.015411 0)
(0.0605244 -0.00888845 0)
(0.064753 -0.00621777 0)
(0.0683649 -0.0046756 0)
(0.0715099 -0.00261163 0)
(0.0739521 0.000887849 0)
(0.0747468 0.00603628 0)
(0.0728375 0.0130153 0)
(0.0679438 0.0224299 0)
(0.060931 0.0371215 0)
(0.0498417 0.0535365 0)
(0.0746232 0.0726336 0)
(-0.00680025 0.101398 0)
(0.0558482 0.150424 0)
(-0.0832826 0.0746479 0)
(-0.27753 0.000458431 0)
(0.760875 0.451383 0)
(-0.307884 0.20347 0)
(0.00237425 0.14375 0)
(-0.0202013 0.115921 0)
(-0.0192458 0.0852069 0)
(-0.0208026 0.0466129 0)
(-0.0130559 -0.00797601 0)
(0.0119217 -0.0875632 0)
(0.0283077 -0.14714 0)
(0.0401785 -0.182955 0)
(0.0472656 -0.194675 0)
(0.0499695 -0.184794 0)
(0.0495957 -0.157571 0)
(0.0481061 -0.119246 0)
(0.0468599 -0.0772792 0)
(0.0472163 -0.0391251 0)
(0.0515242 -0.00949849 0)
(0.060622 0.00526999 0)
(0.0668842 -0.000701374 0)
(0.0656206 -0.0107469 0)
(0.0591824 -0.0185959 0)
(0.050925 -0.0227296 0)
(0.0431677 -0.0234797 0)
(0.0370548 -0.0209384 0)
(0.034369 -0.0155431 0)
(0.0353996 -0.0120406 0)
(0.0382497 -0.0105996 0)
(0.0418151 -0.00952675 0)
(0.0458031 -0.00742856 0)
(0.0499334 -0.00322348 0)
(0.0541058 0.00377835 0)
(0.0566236 0.0132086 0)
(0.0578225 0.024904 0)
(0.0589932 0.0394799 0)
(0.0581305 0.0558583 0)
(0.079482 0.0765135 0)
(0.0653128 0.0888867 0)
(0.0996394 0.0965771 0)
(0.117354 0.0571449 0)
(-0.136656 -0.0297527 0)
(0.81487 0.494189 0)
(-0.333376 0.187424 0)
(0.0322043 0.0935274 0)
(0.039487 0.100375 0)
(0.0466334 0.0821213 0)
(0.052665 0.038217 0)
(0.0807908 -0.0326931 0)
(0.10473 -0.105036 0)
(0.114718 -0.15792 0)
(0.114128 -0.186738 0)
(0.105629 -0.192388 0)
(0.0916246 -0.178367 0)
(0.0747672 -0.149095 0)
(0.0580586 -0.110795 0)
(0.0434496 -0.070176 0)
(0.0330424 -0.0350639 0)
(0.0284971 -0.0102296 0)
(0.0298785 0.00145366 0)
(0.0315117 9.40368e-05 0)
(0.0299954 -0.00626102 0)
(0.0252968 -0.0123522 0)
(0.0191037 -0.0160924 0)
(0.0129851 -0.0174476 0)
(0.0080785 -0.0167919 0)
(0.00562573 -0.0148625 0)
(0.00589481 -0.0137548 0)
(0.00788116 -0.0136228 0)
(0.0108402 -0.0134302 0)
(0.0146074 -0.0121021 0)
(0.0192648 -0.00854117 0)
(0.025433 -0.00151829 0)
(0.0330085 0.00887948 0)
(0.0397943 0.0208112 0)
(0.0476386 0.0340135 0)
(0.0556772 0.0477702 0)
(0.0752551 0.0642329 0)
(0.0880688 0.0695945 0)
(0.119521 0.0630569 0)
(0.163186 0.0512518 0)
(-0.020351 0.0953985 0)
(0.921166 0.497109 0)
(-0.0759586 0.167456 0)
(0.110876 0.0257703 0)
(0.164361 0.0216971 0)
(0.162499 0.0139663 0)
(0.164432 -0.0313518 0)
(0.198454 -0.081995 0)
(0.212959 -0.126753 0)
(0.20671 -0.158971 0)
(0.186082 -0.174105 0)
(0.156201 -0.171347 0)
(0.121401 -0.153344 0)
(0.0854105 -0.123432 0)
(0.052372 -0.0871947 0)
(0.0244034 -0.0502504 0)
(0.00505537 -0.0212666 0)
(-0.00466051 -0.00390857 0)
(-0.00653691 0.00220012 0)
(-0.00639687 0.00102759 0)
(-0.00760145 -0.0033382 0)
(-0.010925 -0.00769385 0)
(-0.0154623 -0.0107409 0)
(-0.020138 -0.0124877 0)
(-0.0240368 -0.0133111 0)
(-0.0264396 -0.0137562 0)
(-0.0273345 -0.014512 0)
(-0.0272868 -0.0155153 0)
(-0.0266884 -0.0162726 0)
(-0.0255467 -0.016239 0)
(-0.0235572 -0.0148341 0)
(-0.0199232 -0.0113334 0)
(-0.0117981 -0.00486688 0)
(-0.0002392 0.00437642 0)
(0.0109499 0.0136072 0)
(0.0225489 0.0206791 0)
(0.0397276 0.0275337 0)
(0.0552527 0.0222814 0)
(0.079382 0.00555806 0)
(0.146109 0.0479176 0)
(-0.427709 0.212405 0)
(1.06539 0.443875 0)
(0.517898 0.298062 0)
(0.529371 0.249154 0)
(0.518953 0.181809 0)
(0.471238 0.121083 0)
(0.435295 0.0588391 0)
(0.393653 -0.00866911 0)
(0.344054 -0.0678728 0)
(0.289858 -0.108198 0)
(0.233 -0.126322 0)
(0.175095 -0.1244 0)
(0.118295 -0.108019 0)
(0.0646936 -0.0812481 0)
(0.0194785 -0.050261 0)
(-0.0168683 -0.0199685 0)
(-0.0334889 -0.00548234 0)
(-0.0406225 0.000903146 0)
(-0.0420356 0.00259362 0)
(-0.0423629 0.00135525 0)
(-0.0434796 -0.00129359 0)
(-0.0460841 -0.00415473 0)
(-0.0497173 -0.00665582 0)
(-0.0537219 -0.00872714 0)
(-0.057555 -0.010457 0)
(-0.0609586 -0.0119757 0)
(-0.0640964 -0.0133839 0)
(-0.0673782 -0.0145198 0)
(-0.0711888 -0.015026 0)
(-0.0758882 -0.0144092 0)
(-0.081951 -0.0120207 0)
(-0.0900668 -0.00702572 0)
(-0.100963 0.0014346 0)
(-0.112617 0.0132428 0)
(-0.127862 0.0282692 0)
(-0.15276 0.0465904 0)
(-0.190018 0.0671638 0)
(-0.2413 0.0859852 0)
(-0.297103 0.0996924 0)
(-0.371061 0.106734 0)
(-0.649789 0.106239 0)
(0.234536 0.0514581 0)
(0.305945 0.113815 0)
(0.321154 0.0888751 0)
(0.299411 0.0372321 0)
(0.274805 -0.0122472 0)
(0.243666 -0.0477205 0)
(0.201943 -0.0684565 0)
(0.152376 -0.0747436 0)
(0.0984758 -0.0677218 0)
(0.0441042 -0.0518543 0)
(-0.0107476 -0.028257 0)
(-0.0465146 -0.010626 0)
(-0.0647686 -0.00242721 0)
(-0.0718452 -0.000157324 0)
(-0.0739147 0.00028301 0)
(-0.0741517 -0.000412313 0)
(-0.0743933 -0.00199562 0)
(-0.0754986 -0.00408442 0)
(-0.0776256 -0.00619444 0)
(-0.0808288 -0.00797944 0)
(-0.0845688 -0.00946756 0)
(-0.0886025 -0.0106178 0)
(-0.0929439 -0.011426 0)
(-0.097751 -0.0118524 0)
(-0.10318 -0.0117109 0)
(-0.10927 -0.0106594 0)
(-0.115895 -0.00823059 0)
(-0.122719 -0.00389156 0)
(-0.129125 0.00291095 0)
(-0.13407 0.0123957 0)
(-0.138044 0.025566 0)
(-0.141496 0.0430292 0)
(-0.145716 0.0639897 0)
(-0.151457 0.0847638 0)
(-0.155006 0.0952681 0)
(-0.140891 0.0732357 0)
(-0.109703 -0.0249056 0)
(-0.286342 -0.213325 0)
(0.120637 0.323235 0)
(0.00779019 0.201957 0)
(0.0379482 0.116409 0)
(0.056484 0.0584901 0)
(0.0605097 0.0202809 0)
(0.0572726 -0.00540189 0)
(0.0370484 -0.0197029 0)
(0.00154501 -0.017731 0)
(-0.0396199 -0.00110221 0)
(-0.0726487 0.0127709 0)
(-0.0931158 0.0203396 0)
(-0.10164 0.0224335 0)
(-0.103576 0.0224155 0)
(-0.103388 0.0223602 0)
(-0.102433 0.0229716 0)
(-0.101343 0.0240054 0)
(-0.100566 0.0250684 0)
(-0.100388 0.0257852 0)
(-0.100866 0.0257767 0)
(-0.101913 0.0246889 0)
(-0.103605 0.0226941 0)
(-0.105868 0.0204874 0)
(-0.10865 0.0183525 0)
(-0.111864 0.0164383 0)
(-0.115374 0.0148514 0)
(-0.118965 0.0137056 0)
(-0.122325 0.0131431 0)
(-0.12497 0.0133288 0)
(-0.126095 0.0149539 0)
(-0.124545 0.0194327 0)
(-0.118749 0.0279111 0)
(-0.107321 0.0413917 0)
(-0.0901034 0.059892 0)
(-0.0681172 0.0800372 0)
(-0.0433002 0.0944012 0)
(-0.00741743 0.0853119 0)
(0.146846 0.0089843 0)
(-0.209878 -0.129133 0)
(-0.420926 -0.515201 0)
(-0.636492 -0.143468 0)
(-0.449279 0.176296 0)
(-0.358725 0.0547681 0)
(-0.215944 -0.00626724 0)
(-0.148931 -0.0470785 0)
(-0.121318 -0.0679306 0)
(-0.117345 -0.0679444 0)
(-0.126266 -0.0593496 0)
(-0.13785 -0.0517455 0)
(-0.142602 -0.0473857 0)
(-0.140439 -0.0458691 0)
(-0.135774 -0.0466856 0)
(-0.130417 -0.0493382 0)
(-0.125805 -0.0525941 0)
(-0.122197 -0.0559813 0)
(-0.119215 -0.0594003 0)
(-0.116613 -0.0629113 0)
(-0.114354 -0.0663889 0)
(-0.112519 -0.0693686 0)
(-0.111238 -0.0712435 0)
(-0.110676 -0.0715829 0)
(-0.110937 -0.0703244 0)
(-0.111999 -0.0681495 0)
(-0.113689 -0.0652795 0)
(-0.11578 -0.0618539 0)
(-0.117991 -0.0579053 0)
(-0.119955 -0.0533528 0)
(-0.121189 -0.0479899 0)
(-0.121057 -0.0414615 0)
(-0.118539 -0.0337882 0)
(-0.11173 -0.0249589 0)
(-0.0978387 -0.0144203 0)
(-0.074383 -0.00126889 0)
(-0.0412548 0.015363 0)
(0.00943644 0.0370679 0)
(0.0616996 0.043041 0)
(0.109248 0.0248999 0)
(0.171764 -0.0147278 0)
(-0.197067 -0.0811105 0)
)
;

boundaryField
{
    floor
    {
        type            noSlip;
    }
    ceiling
    {
        type            noSlip;
    }
    sWall
    {
        type            noSlip;
    }
    nWall
    {
        type            noSlip;
    }
    sideWalls
    {
        type            empty;
    }
    glass1
    {
        type            noSlip;
    }
    glass2
    {
        type            noSlip;
    }
    sun
    {
        type            noSlip;
    }
    Table_master
    {
        type            noSlip;
    }
    Table_slave
    {
        type            noSlip;
    }
    inlet
    {
        type            fixedValue;
        value           uniform (0.46194 -0.191342 0);
    }
    outlet
    {
        type            zeroGradient;
    }
}


// ************************************************************************* //
