/*--------------------------------*- C++ -*----------------------------------*\
  =========                 |
  \\      /  F ield         | OpenFOAM: The Open Source CFD Toolbox
   \\    /   O peration     | Website:  https://openfoam.org
    \\  /    A nd           | Version:  6
     \\/     M anipulation  |
\*---------------------------------------------------------------------------*/
FoamFile
{
    version     2.0;
    format      ascii;
    class       volScalarField;
    location    "490";
    object      k;
}
// * * * * * * * * * * * * * * * * * * * * * * * * * * * * * * * * * * * * * //

dimensions      [0 2 -2 0 0 0 0];

internalField   nonuniform List<scalar> 
458
(
0.00230177
0.00273069
0.00285949
0.00314165
0.0034137
0.00368229
0.00396196
0.0042549
0.00450148
0.00465869
0.00467405
0.0045009
0.00409373
0.00327936
0.00190962
0.000465314
0.00063955
0.000825119
0.000900899
0.000874101
0.000764743
0.0006523
0.000559401
0.000484819
0.000424443
0.000375067
0.000334373
0.000300296
0.000270889
0.000244419
0.000219207
0.000204293
0.000172139
0.00416695
0.00763064
0.00423179
0.00446571
0.00482069
0.00525497
0.0057687
0.00635178
0.00697249
0.0074952
0.00777145
0.00770397
0.00727753
0.0064669
0.0052083
0.003329
0.00229558
0.0015243
0.000456031
0.000988033
0.00133422
0.00149803
0.00151486
0.00129397
0.00105086
0.000854286
0.000704528
0.000589904
0.000500923
0.000430162
0.00037207
0.000323674
0.000288784
0.000268945
0.000492835
0.0002933
0.00614579
0.0137565
0.00500581
0.00482223
0.00505113
0.00541115
0.00589514
0.00650812
0.00718072
0.00775168
0.00810168
0.00815611
0.0078836
0.00721823
0.00617305
0.00500505
0.00400992
0.00214417
0.00107272
0.00141946
0.00163971
0.00177845
0.00177494
0.00138565
0.00105992
0.000822225
0.000651855
0.000528805
0.000438561
0.000371417
0.000321245
0.000284819
0.000265494
0.000268629
0.000775818
0.00040748
0.00841324
0.0223693
0.00603664
0.00480222
0.00485056
0.00513615
0.00561666
0.00633974
0.00708109
0.00766669
0.008052
0.00817496
0.00794965
0.0073224
0.00644341
0.00557428
0.00474927
0.00357724
0.00283682
0.0025536
0.00242651
0.00240089
0.00236017
0.00222353
0.00176629
0.00148172
0.00130059
0.00117342
0.0010706
0.000974422
0.000887166
0.000799539
0.000703178
0.000534894
0.000425271
0.00112554
0.000539181
0.0110986
0.0341135
0.00857449
0.00485165
0.00458588
0.00482907
0.00545915
0.00654975
0.00738234
0.00794922
0.00832376
0.00842937
0.00811056
0.00736306
0.00637277
0.00545019
0.00470641
0.00408463
0.0038877
0.00357511
0.00335231
0.00317418
0.00296259
0.00268739
0.00238749
0.00217875
0.00204786
0.00194357
0.00183271
0.00169481
0.00151844
0.00131863
0.00110658
0.000872202
0.000667593
0.000920712
0.0010527
0.000962526
0.00108178
0.00127918
0.0143874
0.0468655
0.0151845
0.00607443
0.00487599
0.00493672
0.00595267
0.00750635
0.00825109
0.00870255
0.00898678
0.00899883
0.00854395
0.00756126
0.00627664
0.00510324
0.00431382
0.00396765
0.00394215
0.00395592
0.00386805
0.00364371
0.00331643
0.00294802
0.00264347
0.00247486
0.00238752
0.00231667
0.00222736
0.00209765
0.00190289
0.00166712
0.00141326
0.00115512
0.00094089
0.00090306
0.00102698
0.0010506
0.00164697
0.00137674
0.0180269
0.0552229
0.0273468
0.0126425
0.00858607
0.0077253
0.00884206
0.00948419
0.0097337
0.00990404
0.0100129
0.00986775
0.00919045
0.00789539
0.00625676
0.00483226
0.00402284
0.00387878
0.00404926
0.00413993
0.00400968
0.00369799
0.00330329
0.00292417
0.00265869
0.00254155
0.00250946
0.00250147
0.00248755
0.00244723
0.00235045
0.00215905
0.0019216
0.00166902
0.00146667
0.0013731
0.00145769
0.0016873
0.00223802
0.00194974
0.0189817
0.0568218
0.0384003
0.0273934
0.0200737
0.0162973
0.0140475
0.0125524
0.0117965
0.0115095
0.0113468
0.0109409
0.00990967
0.00817648
0.00610645
0.00451791
0.0038162
0.0038034
0.00393479
0.00390707
0.0036655
0.00330347
0.00293338
0.00264179
0.00247879
0.00243751
0.00247151
0.00254643
0.00264994
0.00277945
0.00293235
0.00306963
0.00311372
0.00314659
0.00330244
0.00388117
0.00512995
0.00682099
0.0128022
0.0046658
0.0182337
0.0264756
0.0243601
0.0217118
0.0189154
0.0165225
0.0147581
0.0137675
0.0133574
0.0131392
0.0127846
0.0119825
0.0103232
0.00790398
0.00523687
0.00396217
0.00351619
0.0034302
0.00337524
0.00320981
0.00293056
0.00261836
0.00235378
0.00218643
0.0021254
0.00214818
0.00222622
0.00234352
0.00249579
0.00268378
0.00290859
0.00316821
0.00348624
0.00389723
0.00444165
0.00508671
0.0056809
0.00605025
0.00622923
0.00407145
0.00710464
0.0109969
0.0135117
0.0148774
0.0156849
0.0160961
0.0158776
0.0150296
0.0137502
0.0119368
0.00883891
0.0058363
0.00402723
0.00324289
0.00291288
0.00273596
0.00256078
0.00234316
0.00210918
0.00189708
0.00175071
0.00168393
0.00168425
0.0017323
0.0018143
0.00192473
0.00206456
0.00224001
0.00246326
0.00275758
0.00312345
0.00355932
0.00404271
0.00448161
0.00470455
0.00456888
0.0041085
0.0026381
0.0080496
0.0197294
0.0221001
0.0221235
0.0214189
0.0191134
0.0159316
0.0124372
0.00911371
0.00631677
0.0043229
0.00320332
0.00264269
0.00232963
0.00212221
0.00194053
0.00175459
0.00157345
0.00142347
0.00132338
0.0012727
0.00126943
0.001306
0.00137654
0.00147931
0.00161576
0.0017893
0.00200447
0.00227233
0.00260203
0.00300267
0.00347521
0.00399326
0.00448939
0.00479109
0.00507228
0.00429578
0.00270814
0.00892428
0.00937791
0.00979762
0.0121384
0.0108363
0.00850439
0.00611607
0.00450643
0.00360286
0.00281487
0.00218558
0.00174846
0.00140996
0.00118494
0.00104312
0.000945362
0.000870019
0.000807789
0.000758439
0.000726443
0.000715258
0.000724667
0.000752666
0.000794305
0.000847792
0.000912889
0.000990327
0.00108182
0.00119044
0.00132165
0.00147861
0.00166353
0.00188084
0.00213561
0.0024326
0.00281426
0.00298611
0.00286311
0.00247775
0.00211957
)
;

boundaryField
{
    floor
    {
        type            kqRWallFunction;
        value           nonuniform List<scalar> 
36
(
0.00190962
0.000465314
0.00063955
0.000825119
0.000900899
0.000874101
0.000764743
0.0006523
0.000559401
0.000484819
0.000424443
0.000375067
0.000334373
0.000300296
0.000270889
0.000244419
0.000219207
0.000204293
0.000172139
0.000172139
0.0002933
0.00040748
0.000539181
0.000962526
0.00108178
0.00127918
0.00190962
0.003329
0.00229558
0.0015243
0.000465314
0.0015243
0.000456031
0.00214417
0.00107272
0.00283682
)
;
    }
    ceiling
    {
        type            kqRWallFunction;
        value           nonuniform List<scalar> 
43
(
0.00892428
0.00937791
0.00979762
0.0121384
0.0108363
0.00850439
0.00611607
0.00450643
0.00360286
0.00281487
0.00218558
0.00174846
0.00140996
0.00118494
0.00104312
0.000945362
0.000870019
0.000807789
0.000758439
0.000726443
0.000715258
0.000724667
0.000752666
0.000794305
0.000847792
0.000912889
0.000990327
0.00108182
0.00119044
0.00132165
0.00147861
0.00166353
0.00188084
0.00213561
0.0024326
0.00281426
0.00298611
0.00286311
0.00247775
0.00211957
0.0182337
0.0264756
0.0080496
)
;
    }
    sWall
    {
        type            kqRWallFunction;
        value           uniform 0.00892428;
    }
    nWall
    {
        type            kqRWallFunction;
        value           nonuniform List<scalar> 6(0.00127918 0.00137674 0.00194974 0.0026381 0.00270814 0.00211957);
    }
    sideWalls
    {
        type            empty;
    }
    glass1
    {
        type            kqRWallFunction;
        value           nonuniform List<scalar> 9(0.00230177 0.00416695 0.00614579 0.00841324 0.0110986 0.0143874 0.0180269 0.0189817 0.0182337);
    }
    glass2
    {
        type            kqRWallFunction;
        value           nonuniform List<scalar> 2(0.0046658 0.00407145);
    }
    sun
    {
        type            kqRWallFunction;
        value           nonuniform List<scalar> 
14
(
0.00230177
0.00273069
0.00285949
0.00314165
0.0034137
0.00368229
0.00396196
0.0042549
0.00450148
0.00465869
0.00467405
0.0045009
0.00409373
0.00327936
)
;
    }
    Table_master
    {
        type            kqRWallFunction;
        value           nonuniform List<scalar> 9(0.00138565 0.00105992 0.000822225 0.000651855 0.000528805 0.000438561 0.000371417 0.000321245 0.000284819);
    }
    Table_slave
    {
        type            kqRWallFunction;
        value           nonuniform List<scalar> 9(0.00176629 0.00148172 0.00130059 0.00117342 0.0010706 0.000974422 0.000887166 0.000799539 0.000703178);
    }
    inlet
    {
        type            turbulentIntensityKineticEnergyInlet;
        intensity       0.05;
        value           uniform 0.000937501;
    }
    outlet
    {
        type            zeroGradient;
    }
}


// ************************************************************************* //
