/*--------------------------------*- C++ -*----------------------------------*\
  =========                 |
  \\      /  F ield         | OpenFOAM: The Open Source CFD Toolbox
   \\    /   O peration     | Website:  https://openfoam.org
    \\  /    A nd           | Version:  6
     \\/     M anipulation  |
\*---------------------------------------------------------------------------*/
FoamFile
{
    version     2.0;
    format      ascii;
    class       surfaceScalarField;
    location    "35499.9999982451773";
    object      phi;
}
// * * * * * * * * * * * * * * * * * * * * * * * * * * * * * * * * * * * * * //

dimensions      [1 0 -1 0 0 0 0];

internalField   nonuniform List<scalar> 
1482
(
-0.00279981
0.00286384
-0.00348408
0.000684269
-0.00414482
0.000660742
-0.00475898
0.000614164
-0.00528047
0.000521492
-0.00569254
0.00041207
-0.00598395
0.00029141
-0.00614162
0.000157672
-0.0061482
6.57143e-06
-0.00597766
-0.000170536
-0.00560001
-0.000377645
-0.00498416
-0.000615851
-0.00405986
-0.000924301
-0.00258076
-0.0014791
-0.00257784
-6.50574e-05
6.99111e-05
0.000778919
-0.000843976
0.00143191
-0.000652992
0.00183191
-0.000399998
0.00205409
-0.000222182
0.00215874
-0.000104654
0.00220601
-4.7269e-05
0.00222865
-2.26372e-05
0.00223826
-9.61118e-06
0.00223909
-8.24056e-07
0.00223201
7.07817e-06
0.002213
1.90027e-05
0.00216874
4.42655e-05
0.002066
0.000102743
0.00184938
0.000216616
0.00149194
0.00035744
0.00102043
0.000471514
0.00102686
-0.0020404
0.00507457
-0.00290856
0.00155243
-0.00369443
0.00144661
-0.00434552
0.00126525
-0.00488287
0.00105884
-0.00531177
0.000840978
-0.00563046
0.000610096
-0.00583211
0.000359323
-0.00590602
8.04846e-05
-0.00584432
-0.000232244
-0.00564114
-0.000580823
-0.00528514
-0.000971848
-0.00477513
-0.00143432
-0.00428917
-0.00196506
-0.00470529
-0.00216172
-0.0031185
-0.00158135
-0.00163467
-0.00147814
-0.00161983
0.00131742
-0.00123729
0.00166125
-0.00118781
0.00191285
-0.000904592
0.00210419
-0.000591336
0.00221176
-0.000329754
0.00222082
-0.000113711
0.00222291
-4.93532e-05
0.00222456
-2.42881e-05
0.00222549
-1.05399e-05
0.00222543
-7.68396e-07
0.00222401
8.49425e-06
0.00221979
2.32315e-05
0.00220714
5.69149e-05
0.00214519
0.000164692
0.00189557
0.000466235
0.00146617
0.000786842
0.000902566
0.00103512
0.00194631
-0.0014883
0.00682079
-0.00235925
0.00242338
-0.00312926
0.00221662
-0.00371352
0.00184951
-0.00418424
0.00152956
-0.00455578
0.00121252
-0.00482995
0.000884264
-0.0050035
0.00053288
-0.00507003
0.000147009
-0.00502042
-0.000281857
-0.00484389
-0.000757356
-0.00453298
-0.00128276
-0.0041185
-0.0018488
-0.00372117
-0.00236238
-0.00330091
-0.00258199
-0.00236945
-0.00251281
-0.0012752
-0.0025724
-0.0028822
0.00115
-0.00237284
0.00165318
-0.001691
0.00195133
-0.00120274
0.00214396
-0.000783968
0.00217387
-0.000359662
0.00206031
0.00201111
0.00198698
0.00197659
0.00197598
0.00198462
0.00200801
0.00206508
0.00222993
0.00187168
0.000824477
0.00142408
0.00123444
0.000804476
0.00165472
0.00277682
-0.00110612
0.00825811
-0.00192811
0.00324537
-0.0025702
0.0028587
-0.00303057
0.00230989
-0.00339814
0.00189713
-0.00368695
0.00150133
-0.00390004
0.00109735
-0.00403557
0.00066841
-0.00408603
0.000197464
-0.0040382
-0.000329683
-0.00387979
-0.000915773
-0.00360666
-0.00155589
-0.00324142
-0.00221403
-0.00281993
-0.00278388
-0.00228095
-0.00312097
-0.00156165
-0.00323211
-0.000873752
-0.00326029
-0.00069491
-0.00306104
0.00144188
-0.00212135
0.00137513
-0.00230609
0.00169118
-0.00200705
0.0020039
-0.00151545
0.00227019
-0.00105027
0.0025463
-0.000635767
0.00286083
-0.000314688
0.00302851
-0.000167825
0.00309369
-6.53392e-05
0.00307693
1.66054e-05
0.00298706
8.97199e-05
0.00282515
0.000161754
0.00258349
0.000241505
0.00223922
0.000344115
0.0017351
0.000503968
0.00159926
0.00096032
0.00127261
0.0015611
0.000746809
0.00218052
0.00355793
-0.000803834
0.00945513
-0.00158008
0.00402162
-0.00204881
0.00332744
-0.00236457
0.00262565
-0.00260895
0.00214151
-0.00279446
0.00168685
-0.00292614
0.00122903
-0.00300473
0.000746998
-0.0030237
0.000216428
-0.00296643
-0.000386946
-0.0028197
-0.00106251
-0.00257658
-0.00179901
-0.00224366
-0.00254696
-0.00182804
-0.00319949
-0.00132348
-0.00362553
-0.000747516
-0.00380808
-0.0002166
-0.00379121
0.000260738
-0.00353838
0.00112233
-0.00298294
0.00148889
-0.00267265
0.00174829
-0.00226645
0.00200103
-0.0017682
0.0022311
-0.00128034
0.00244559
-0.000850254
0.00264713
-0.00051623
0.00275773
-0.000278432
0.00279446
-0.000102067
0.00276902
4.20443e-05
0.00268786
0.000170883
0.00255354
0.000296072
0.002365
0.000430048
0.00212002
0.000589093
0.00182684
0.000797152
0.00162261
0.00116455
0.00148335
0.00170035
0.00130749
0.00235638
0.00229708
0.00256834
0.00132866
0.00100334
0.00187264
-0.000515118
0.00199174
-0.000575914
0.0104774
-0.00132492
0.00477063
-0.00158466
0.00358718
-0.00175066
0.00279164
-0.00186467
0.00225552
-0.00193614
0.00175832
-0.00197154
0.00126443
-0.00197518
0.000750644
-0.00194388
0.000185126
-0.001856
-0.000474827
-0.00170181
-0.00121669
-0.00147145
-0.00202938
-0.00116784
-0.00285056
-0.000796764
-0.00357057
-0.000378036
-0.00404425
6.16438e-05
-0.00424775
0.000466721
-0.00419628
0.000841327
-0.00391298
0.00129286
-0.00343447
0.00159233
-0.00297212
0.00179622
-0.00247034
0.00196817
-0.00194015
0.00212028
-0.00143245
0.00225526
-0.000985228
0.00236065
-0.000621622
0.0024194
-0.00033718
0.00243102
-0.000113691
0.00240067
7.23933e-05
0.00233316
0.000238394
0.00223238
0.000396859
0.00210252
0.000559904
0.00195089
0.000740719
0.0017923
0.000955747
0.00170323
0.00125362
0.00176298
0.0016406
0.0019775
0.00214187
0.00222237
0.00232346
0.00173193
0.00149378
0.000812146
0.000404669
0.00290153
-0.000543489
0.0115131
-0.0012438
0.00547093
-0.00119228
0.00353566
-0.00120076
0.00280012
-0.00119316
0.00224792
-0.00115968
0.00172484
-0.00110249
0.00120724
-0.00102734
0.000675498
-0.000928654
8.64352e-05
-0.000779602
-0.00062388
-0.000590549
-0.00140575
-0.000351146
-0.00226878
-6.85347e-05
-0.00313317
0.000234927
-0.00387403
0.00054377
-0.00435309
0.000838216
-0.00454219
0.00110096
-0.00445902
0.00133457
-0.00414659
0.00156694
-0.00366684
0.00172734
-0.00313252
0.00182799
-0.00257099
0.00189875
-0.00201091
0.0019553
-0.00148901
0.00200279
-0.00103272
0.00203588
-0.000654715
0.00204874
-0.000350034
0.00203779
-0.000102743
0.00200369
0.000106497
0.00194949
0.000292595
0.00187902
0.000467324
0.00179765
0.000641275
0.00171421
0.000824154
0.00164429
0.00102568
0.0016318
0.0012661
0.00172218
0.00155022
0.00193715
0.0019269
0.00219354
0.00206707
0.00220433
0.00148299
0.00165034
0.000958658
0.00465506
-0.000483653
0.0125323
-0.00105172
0.006039
-0.00069781
0.00318175
-0.00063713
0.00273944
-0.00056883
0.00217962
-0.000464115
0.00162012
-0.000334955
0.00107808
-0.000183504
0.000524047
6.08106e-06
-0.00010315
0.000224452
-0.00084225
0.000464044
-0.00164534
0.000721038
-0.00252577
0.000976745
-0.00338887
0.00120397
-0.00410125
0.0014021
-0.00455121
0.00156254
-0.00470263
0.00168014
-0.00457661
0.00175965
-0.00422609
0.0018134
-0.00372059
0.0018244
-0.00314352
0.00180073
-0.00254732
0.0017613
-0.00197148
0.00172095
-0.00144866
0.00168707
-0.000998832
0.00165949
-0.000627135
0.00163409
-0.000324639
0.00160588
-7.45343e-05
0.00157253
0.000139852
0.00153422
0.000330903
0.00149234
0.000509206
0.00145019
0.00068342
0.00141437
0.000859981
0.00139658
0.00104347
0.00142173
0.00124095
0.00152006
0.00145189
0.00174275
0.00170422
0.00204278
0.00176704
0.00216166
0.00136411
0.00167622
0.00144409
0.0066995
0.002977
0.0101424
0.00202159
0.00699441
0.000868616
0.00433473
0.000370184
0.00323787
0.000213205
0.0023366
0.000269643
0.00156368
0.000423761
0.000923966
0.000637988
0.000309821
0.000897592
-0.000362754
0.00116271
-0.00110737
0.00144107
-0.0019237
0.00170738
-0.00279208
0.00193227
-0.00361376
0.00209175
-0.00426073
0.0021803
-0.00463975
0.00220086
-0.00472319
0.00216244
-0.00453818
0.00207874
-0.00414238
0.00196492
-0.00360676
0.0018265
-0.0030051
0.00167555
-0.00239637
0.00152891
-0.00182484
0.00140113
-0.00132087
0.00130026
-0.000897967
0.00122726
-0.00055413
0.00117698
-0.000274362
0.00114196
-3.95133e-05
0.00111679
0.000165019
0.00109793
0.000349764
0.00108315
0.000523985
0.00107248
0.000694085
0.0010688
0.000863668
0.00107872
0.00103355
0.00111682
0.00120284
0.0012055
0.00136321
0.00139691
0.00151281
0.0016899
0.00147405
0.00181986
0.00123414
0.000489703
0.00277424
0.00757505
0.0040316
0.00625107
0.00366778
0.00735823
0.00254234
0.00546016
0.00188912
0.00389108
0.00153257
0.00269315
0.00138777
0.00170848
0.00142173
0.000890005
0.00159644
0.000135111
0.0018488
-0.000615112
0.00212609
-0.00138466
0.00240554
-0.00220315
0.00264965
-0.0030362
0.00281685
-0.00378096
0.00288042
-0.0043243
0.00283744
-0.00459678
0.00270203
-0.00458778
0.00249667
-0.00433282
0.00224574
-0.00389144
0.00197199
-0.00333301
0.00169256
-0.00272567
0.00142466
-0.00212847
0.00118629
-0.00158646
0.000992054
-0.00112664
0.000848012
-0.000753925
0.000752478
-0.000458596
0.000696043
-0.000217927
0.000667493
-1.09632e-05
0.000657903
0.00017461
0.000660286
0.000347381
0.000669715
0.000514555
0.000683356
0.000680444
0.00069967
0.000847354
0.000717892
0.00101532
0.000738979
0.00118176
0.000761841
0.00134034
0.000764025
0.00151063
0.000398785
0.00183926
-0.000886377
0.00251902
-0.00211372
0.00400144
0.00556616
0.00240992
0.00400567
0.00330519
0.00646295
0.00324922
0.00551613
0.00303843
0.00410188
0.00284746
0.00288412
0.00272433
0.0018316
0.00271068
0.00090366
0.00279999
4.5801e-05
0.00296231
-0.00077743
0.00317308
-0.00159544
0.00339018
-0.00242025
0.00355343
-0.00319945
0.00360823
-0.00383576
0.00352821
-0.00424429
0.00331912
-0.00438769
0.00300734
-0.00427599
0.00262743
-0.00395291
0.0022129
-0.00347691
0.00179343
-0.00291353
0.00139292
-0.00232515
0.00103312
-0.00176867
0.00073407
-0.00128741
0.000509461
-0.000902032
0.000357347
-0.000601811
0.000267963
-0.000369211
0.00022412
-0.000174085
0.000211354
1.80349e-06
0.000219178
0.000166786
0.000240087
0.000326472
0.000269007
0.000485635
0.000301679
0.000647772
0.000332712
0.00081632
0.000353607
0.000994428
0.000352086
0.00118328
0.000304908
0.00138752
0.000124291
0.00169126
-0.000476768
0.00244025
-0.00135565
0.00339766
-0.0015831
0.00422869
0.00410043
0.00145727
0.00274266
0.00274893
0.00517129
0.00343308
0.00483197
0.00371909
0.00381587
0.00381759
0.00278562
0.0038459
0.00180329
0.00388254
0.000867014
0.00395244
-2.4094e-05
0.00406311
-0.000888105
0.00420348
-0.00173581
0.00432181
-0.00253858
0.00434736
-0.00322501
0.00422884
-0.00371725
0.00395434
-0.00396979
0.00354651
-0.00397987
0.00304533
-0.00377481
0.00249484
-0.00340242
0.00193392
-0.00291599
0.00139692
-0.00237653
0.000911531
-0.00183976
0.000505143
-0.00136228
0.000197264
-0.000979529
-7.39909e-06
-0.000697368
-0.000126659
-0.00048255
-0.000186745
-0.000309124
-0.000209706
-0.000151123
-0.000207919
1.61473e-08
-0.000188475
0.000147342
-0.000155709
0.000293706
-0.000112758
0.000442684
-6.36026e-05
0.000598617
-1.53279e-05
0.000768045
1.86905e-05
0.000960409
1.34027e-05
0.00118856
-8.0483e-05
0.00148142
-0.000353778
0.00196465
-0.000947759
0.00303444
-0.00187476
0.00432468
-0.00201459
0.00436846
0.00221741
0.00217439
0.000794256
0.00294483
0.00440085
0.00359439
0.00418241
0.00416425
0.00324601
0.00449188
0.00245799
0.00466638
0.00162879
0.00478378
0.000749611
0.00488965
-0.000129961
0.00499726
-0.000995718
0.00507594
-0.00181449
0.00505979
-0.00252243
0.00488883
-0.00305407
0.0045409
-0.00336934
0.00403507
-0.00346397
0.00341632
-0.00336112
0.0027355
-0.003094
0.00204136
-0.00270828
0.00137225
-0.00224688
0.000767699
-0.00177197
0.000256379
-0.00132844
-0.000122994
-0.00098291
-0.000366295
-0.000736227
-0.00050319
-0.000560471
-0.00057237
-0.000413369
-0.000603752
-0.00027774
-0.000611113
-0.000143761
-0.000601058
-1.00386e-05
-0.000576197
0.000122482
-0.000537129
0.000254638
-0.000484342
0.000389896
-0.000419959
0.000534234
-0.000349499
0.000697584
-0.000284596
0.000895504
-0.000249467
0.00115343
-0.000287322
0.00151928
-0.000433578
0.00211104
-0.000609201
0.00321051
-0.00107202
0.0047879
-0.00136373
0.00466056
0.000998641
-0.00157994
0.00261935
0.00111787
0.00170305
0.00335018
0.00195009
0.00435261
0.00224359
0.00485648
0.00195411
0.0051715
0.00131377
0.00540071
0.000520398
0.00558033
-0.000309571
0.00568102
-0.0010964
0.00564019
-0.00177367
0.00540695
-0.00228919
0.00496976
-0.00261689
0.00435666
-0.00275625
0.00362041
-0.00272774
0.00282094
-0.00256167
0.00200815
-0.00228121
0.00123067
-0.00193081
0.000520015
-0.00153622
-7.20962e-05
-0.00117987
-0.000500609
-0.000899928
-0.000762765
-0.000720756
-0.000907355
-0.000591636
-0.000982927
-0.000484895
-0.00101695
-0.000379336
-0.00102713
-0.000267552
-0.00102227
-0.000148623
-0.00100618
-2.61326e-05
-0.00097863
9.49356e-05
-0.000936915
0.000212923
-0.000878255
0.000331234
-0.000801423
0.000457402
-0.000707816
0.000603976
-0.000603538
0.000791221
-0.000501845
0.00105172
-0.000415797
0.0014332
-0.000312881
0.00200814
-1.85869e-05
0.00291649
0.000488897
0.00428082
0.000870987
0.0042789
0.00202059
0.0028811
0.00456897
0.00486953
0.00164953
0.00535598
0.00175714
0.00559243
0.00171767
0.0058243
0.00108191
0.00601287
0.000331831
0.00608051
-0.00037719
0.00595554
-0.000971418
0.00560457
-0.00142269
0.0050402
-0.00172482
0.00430927
-0.00188598
0.00346984
-0.00191684
0.00257999
-0.00183791
0.00169428
-0.00167597
0.00084534
-0.00143228
7.62527e-05
-0.00116173
-0.000549272
-0.000910706
-0.00098567
-0.000743478
-0.00125067
-0.000634936
-0.0014032
-0.000568227
-0.00148336
-0.000511461
-0.0015207
-0.000447539
-0.00153133
-0.000368687
-0.0015251
-0.000273769
-0.00150839
-0.000165331
-0.00148534
-4.91775e-05
-0.00145641
6.59982e-05
-0.00141729
0.0001738
-0.0013624
0.00027634
-0.00128759
0.000382592
-0.00119046
0.000506847
-0.00106986
0.000670609
-0.000922159
0.000903955
-0.000728071
0.00123897
-0.000416229
0.0016961
0.000169086
0.0023311
0.00109657
0.00335352
0.00153968
0.00383601
0.00372096
0.0079306
0.00536728
0.00580997
0.00387778
0.00556171
0.00196595
0.00563427
0.00100939
0.0056
0.000366147
0.00535748
-0.000134629
0.00489573
-0.000509643
0.00425524
-0.000782205
0.00348927
-0.000958867
0.00265031
-0.00104704
0.00177902
-0.00104558
0.00091111
-0.00097002
8.09513e-05
-0.000845829
-0.000650766
-0.000700581
-0.00122254
-0.000589979
-0.00161883
-0.000514434
-0.00187668
-0.000485652
-0.00203121
-0.000480408
-0.00212172
-0.000477701
-0.00217124
-0.000461905
-0.00219263
-0.000426101
-0.00219335
-0.000367921
-0.00217913
-0.000287959
-0.00215524
-0.000189212
-0.00212697
-7.74706e-05
-0.00209857
3.75671e-05
-0.00206864
0.000143845
-0.00203208
0.000239771
-0.00198348
0.000334002
-0.00191611
0.000439517
-0.00181793
0.000572461
-0.00166546
0.000751431
-0.00142022
0.000993519
-0.0010184
0.00129391
-0.000296019
0.00160828
0.000990279
0.002067
0.00159814
0.00322799
0.00548828
0.00409559
0.00151829
0.0044969
0.00347649
0.00372875
0.00273414
0.00323002
0.00150817
0.00288871
0.00070751
0.00252457
0.000229542
0.00207882
-6.38787e-05
0.00154122
-0.000244619
0.000929535
-0.000347194
0.000259906
-0.000377432
-0.000431583
-0.000354108
-0.00108793
-0.000313694
-0.00165628
-0.000277518
-0.00210075
-0.000256146
-0.00242429
-0.00026648
-0.00263986
-0.000298896
-0.00278267
-0.000342855
-0.00287941
-0.000383639
-0.00294591
-0.000411139
-0.00298885
-0.000418877
-0.00301153
-0.000403325
-0.00301656
-0.000362804
-0.00300694
-0.000297544
-0.00298606
-0.000210104
-0.00295781
-0.000105795
-0.00292747
7.11962e-06
-0.00290076
0.000117048
-0.00287652
0.000215488
-0.00284947
0.000306979
-0.00281341
0.000403567
-0.00275839
0.000517605
-0.00266425
0.00065742
-0.00249293
0.000822182
-0.00219101
0.000991761
-0.001711
0.00112778
-0.00103762
0.00139299
-0.00062196
0.0028117
0.00505025
-0.00262368
-0.00679573
-0.00743093
-0.0074761
-0.00375658
-0.00215607
-0.00168112
0.00140106
-0.000767115
0.00182019
-0.00056632
0.00130743
-0.000643057
0.00078429
-0.000823586
0.0004101
-0.00105776
0.000170315
-0.00134104
3.86733e-05
-0.0016763
-1.19395e-05
-0.00204269
-1.10666e-05
-0.00241115
1.43316e-05
-0.00275734
3.24526e-05
-0.00305602
2.1103e-05
-0.00328692
-2.53131e-05
-0.00345004
-0.00010341
-0.00356494
-0.000184004
-0.00365394
-0.000253828
-0.00372763
-0.000309873
-0.00378859
-0.00035005
-0.00383621
-0.000371111
-0.00386984
-0.000369548
-0.0038899
-0.000342636
-0.00389795
-0.000289462
-0.00389626
-0.000211861
-0.00388699
-0.000115218
-0.00386988
-1.02025e-05
-0.00384221
8.91741e-05
-0.00379958
0.000172704
-0.00374129
0.000248647
-0.00366533
0.000327698
-0.00356927
0.000421751
-0.00345103
0.000539457
-0.00330361
0.000675047
-0.00313305
0.000821434
-0.00312653
0.0011214
-0.00373522
0.00200166
-0.00382257
0.00289876
0.00142369
-0.00737128
0.00102935
-0.00814165
-0.0067057
-0.00718946
-0.00310823
-0.00566607
-0.000122288
-0.00457375
0.000727931
-0.00398377
0.000717526
-0.00372658
0.000527159
-0.00366115
0.000344722
-0.00370283
0.00021203
-0.00379534
0.000131199
-0.00389806
9.0779e-05
-0.0039871
7.79357e-05
-0.00404965
7.68092e-05
-0.00408772
7.04431e-05
-0.0041171
5.04005e-05
-0.00415159
9.10843e-06
-0.00419827
-5.67486e-05
-0.00425762
-0.000124628
-0.00432827
-0.00018309
-0.00440818
-0.000229827
-0.00449449
-0.000263555
-0.00458348
-0.000281927
-0.00467027
-0.000282592
-0.00474866
-0.000264152
-0.0048116
-0.000226537
-0.00485235
-0.000171243
-0.00486601
-0.000101794
-0.00485203
-2.44955e-05
-0.00480683
4.36574e-05
-0.00472724
9.28608e-05
-0.00461031
0.000131557
-0.00445142
0.000168767
-0.00424236
0.000212781
-0.0039725
0.000269799
-0.00363445
0.00033726
-0.00320552
0.0003928
-0.00247386
0.000390012
-0.000742138
0.000270167
0.00109269
0.00106401
0.00271292
0.00157134
-0.00506946
-0.00811428
-0.00817695
-0.00739455
-0.0066304
-0.00606336
-0.00568358
-0.00543959
-0.00527814
-0.00515773
-0.00504997
-0.00494264
-0.0048408
-0.00475825
-0.00471651
-0.00474045
-0.00483233
-0.00498294
-0.00518081
-0.00541317
-0.00566485
-0.00591821
-0.00615409
-0.00635318
-0.00649756
-0.00657287
-0.00657107
-0.00650123
-0.00638226
-0.0062248
-0.00603052
-0.00579285
-0.00549902
-0.00513881
-0.00472432
-0.00431395
-0.00402477
-0.00294318
)
;

boundaryField
{
    floor
    {
        type            calculated;
        value           nonuniform List<scalar> 
36
(
0
0
0
0
0
0
0
0
0
0
0
0
0
0
0
0
0
0
0
-6.43864e-06
-1.6883e-05
-2.60298e-05
-3.43002e-05
-3.49279e-05
-2.88576e-05
-2.86955e-05
-2.91995e-06
-5.44106e-06
-5.68733e-06
-5.90753e-06
-4.85403e-06
-8.93807e-06
-1.02113e-05
-1.28324e-05
-1.44574e-05
-1.54456e-05
)
;
    }
    ceiling
    {
        type            calculated;
        value           nonuniform List<scalar> 
43
(
-5.79439e-05
-6.48708e-05
-6.33413e-05
-5.95206e-05
-5.43702e-05
-4.65226e-05
-3.97905e-05
-3.4983e-05
-3.19245e-05
-3.0264e-05
-2.96775e-05
-2.98903e-05
-3.06094e-05
-3.14904e-05
-3.22249e-05
-3.26735e-05
-3.2808e-05
-3.27013e-05
-3.23665e-05
-3.17981e-05
-3.1017e-05
-3.00905e-05
-2.91268e-05
-2.82454e-05
-2.75374e-05
-2.70404e-05
-2.67384e-05
-2.65763e-05
-2.64736e-05
-2.63342e-05
-2.60629e-05
-2.55933e-05
-2.48925e-05
-2.39572e-05
-2.28135e-05
-2.15198e-05
-2.01608e-05
-1.87932e-05
-1.73405e-05
-1.58064e-05
1.93349e-05
1.5188e-05
-0.000246599
)
;
    }
    sWall
    {
        type            calculated;
        value           nonuniform List<scalar> 9(-0.000140236 -0.000164524 -0.000194259 -0.000225979 -0.000245155 -0.000281089 -0.000423774 -0.000453798 -0.000484049);
    }
    nWall
    {
        type            calculated;
        value           nonuniform List<scalar> 
14
(
-9.04057e-05
-9.76286e-05
-0.00010318
-0.000104797
-0.00011737
-0.000131602
-0.000144701
-0.000150648
-0.000160589
-0.000169373
-0.000184256
-0.000196455
-0.000196271
-0.000214169
)
;
    }
    sideWalls
    {
        type            empty;
        value           nonuniform 0();
    }
    glass1
    {
        type            calculated;
        value           nonuniform List<scalar> 9(-6.40343e-05 -0.000170321 -0.000257922 -0.000331205 -0.000393188 -0.000446393 -0.000492205 -0.000535487 -0.000587169);
    }
    glass2
    {
        type            calculated;
        value           nonuniform List<scalar> 2(-0.000368198 -0.000385779);
    }
    sun
    {
        type            calculated;
        value           uniform 0;
    }
    Table_master
    {
        type            calculated;
        value           nonuniform List<scalar> 9(-1.53993e-07 -1.5411e-07 -1.54142e-07 -1.54162e-07 -1.54175e-07 -1.5418e-07 -1.54178e-07 -1.54164e-07 -1.54111e-07);
    }
    Table_slave
    {
        type            calculated;
        value           nonuniform List<scalar> 9(1.53662e-07 1.53718e-07 1.53717e-07 1.53734e-07 1.53755e-07 1.53799e-07 1.53866e-07 1.53959e-07 1.54087e-07);
    }
    inlet
    {
        type            calculated;
        value           uniform -0.0116483;
    }
    outlet
    {
        type            calculated;
        value           nonuniform List<scalar> 2(0.00984317 0.0122833);
    }
}


// ************************************************************************* //
