/*--------------------------------*- C++ -*----------------------------------*\
  =========                 |
  \\      /  F ield         | OpenFOAM: The Open Source CFD Toolbox
   \\    /   O peration     | Website:  https://openfoam.org
    \\  /    A nd           | Version:  6
     \\/     M anipulation  |
\*---------------------------------------------------------------------------*/
FoamFile
{
    version     2.0;
    format      ascii;
    class       volScalarField;
    location    "1990";
    object      nut;
}
// * * * * * * * * * * * * * * * * * * * * * * * * * * * * * * * * * * * * * //

dimensions      [0 2 -1 0 0 0 0];

internalField   nonuniform List<scalar> 
458
(
0.0010694
0.00116385
0.00119015
0.00124709
0.00129953
0.00134918
0.00139885
0.00144928
0.0014905
0.0015164
0.00151932
0.00149173
0.00142417
0.00128115
0.000971971
0.000480382
0.000563148
0.000638467
0.000665722
0.000655302
0.000613231
0.000566686
0.000525035
0.000488956
0.000457619
0.000430255
0.000406312
0.000385079
0.000365739
0.000347396
0.000328977
0.000318032
0.00029229
0.00144196
0.00324201
0.0029902
0.00342619
0.00386087
0.004308
0.00470924
0.00501946
0.0053381
0.00563631
0.00587546
0.00602072
0.00603432
0.00582451
0.00473392
0.00128298
0.0010644
0.000868442
0.000476521
0.00113084
0.00164827
0.00204884
0.00217553
0.0015855
0.00133847
0.00117038
0.00104635
0.000951297
0.00087589
0.000810871
0.000749754
0.000688742
0.000634249
0.000588569
0.000719974
0.000384239
0.00175321
0.0043576
0.00359598
0.0043846
0.00471607
0.00494889
0.00512782
0.00529293
0.00552261
0.00580164
0.00610653
0.00640545
0.00664171
0.00672471
0.00633671
0.00516452
0.00391412
0.0010257
0.000733972
0.00126656
0.00184309
0.0024166
0.00258043
0.000824217
0.000721592
0.000636199
0.000567037
0.000511224
0.000465994
0.000429226
0.000399495
0.000376368
0.000417094
0.000483051
0.00084472
0.000454088
0.00205314
0.00556643
0.00349821
0.00454279
0.00472447
0.00470676
0.00469026
0.00476952
0.00495625
0.00523218
0.00558283
0.00597414
0.00631721
0.00653332
0.00648487
0.0061496
0.005278
0.00289761
0.00118165
0.00150492
0.00206906
0.00275988
0.00335878
0.0033884
0.000928467
0.000851086
0.000798382
0.000759482
0.000726585
0.000693892
0.000662844
0.000630034
0.000591681
0.000557314
0.000549165
0.00100684
0.000522995
0.00235968
0.00719289
0.00366948
0.00431259
0.00457227
0.00441808
0.00429265
0.00436474
0.00456186
0.00484888
0.00522687
0.00565594
0.00599212
0.0061598
0.00615607
0.00603891
0.00569103
0.00470599
0.00426545
0.00429654
0.00454728
0.00484598
0.00502927
0.00494694
0.00422091
0.00384755
0.00364177
0.00349431
0.00334508
0.00315283
0.00282612
0.00240528
0.00192652
0.00146539
0.00109901
0.00102381
0.000888835
0.000699205
0.000740175
0.000804525
0.00268783
0.00902576
0.00502593
0.00399304
0.00435233
0.00434397
0.00418407
0.00424396
0.00444492
0.00473194
0.00511531
0.00552669
0.00583786
0.00593776
0.00584405
0.00570965
0.00564932
0.00556836
0.00573623
0.00602731
0.00623166
0.00626845
0.00613149
0.00584447
0.00544347
0.00511762
0.00486385
0.00464012
0.00442048
0.00418734
0.00388613
0.00347325
0.00295104
0.00236035
0.00181365
0.00131493
0.00108078
0.000942863
0.00118734
0.000834447
0.00301087
0.010411
0.00750094
0.00490855
0.00427147
0.00433342
0.00438927
0.00442092
0.00453428
0.00478711
0.00516431
0.00557216
0.00585769
0.00589011
0.00571182
0.00558301
0.00579804
0.00627383
0.00675806
0.0070315
0.00703254
0.00679881
0.00640242
0.0059199
0.0054392
0.00505233
0.00475934
0.00452179
0.00431397
0.00412733
0.00395744
0.00373533
0.00337018
0.00288243
0.00237572
0.00188893
0.00157132
0.0014395
0.00137214
0.000991356
0.00309061
0.00966316
0.00820292
0.00688322
0.00587492
0.0054288
0.00501049
0.0047253
0.00471886
0.0049596
0.00534983
0.00575314
0.00599409
0.00594032
0.00572206
0.00577841
0.00639186
0.00689505
0.00715714
0.00714539
0.00686164
0.00637058
0.00576608
0.00515652
0.00465009
0.00429517
0.00405581
0.00388387
0.00375663
0.00367081
0.00363264
0.00363423
0.00353674
0.00324677
0.00296405
0.00280647
0.00287504
0.00303501
0.00360541
0.00153578
0.0030299
0.00365337
0.00403431
0.00424626
0.00427568
0.00421072
0.00421084
0.00438505
0.00474082
0.00519562
0.00566253
0.0060318
0.00615208
0.00594292
0.00588519
0.00619726
0.00655733
0.0066808
0.00659176
0.00627987
0.00575715
0.00511143
0.00446666
0.00393773
0.00357184
0.00333882
0.00318252
0.00306374
0.00296241
0.00286729
0.00276967
0.00266248
0.00256531
0.00248122
0.00242559
0.00239432
0.00233477
0.00221201
0.00206282
0.00143462
0.00133541
0.00234696
0.00322209
0.00390661
0.00453168
0.00514085
0.00562529
0.00595235
0.0061673
0.00620089
0.00600203
0.00575714
0.0057593
0.00586275
0.00578415
0.00555145
0.00518428
0.00468996
0.00412113
0.00356552
0.00312324
0.00282538
0.00264277
0.00253069
0.00245629
0.00240207
0.00236048
0.00232975
0.00231249
0.0023179
0.00233147
0.00234356
0.0023443
0.00230736
0.00219312
0.0019917
0.00174212
0.00115434
0.00201497
0.00395724
0.00507502
0.00580036
0.00636537
0.00641568
0.00608746
0.00575699
0.00547366
0.00492886
0.00454061
0.0044506
0.00438937
0.00421764
0.0039588
0.00363793
0.0032617
0.0028658
0.00250902
0.00223134
0.00203997
0.0019297
0.00187806
0.00186695
0.00188523
0.00192588
0.00198269
0.0020484
0.00212539
0.00221371
0.00230822
0.00240106
0.0024766
0.00251444
0.0024794
0.00244886
0.00225465
0.00116933
0.00211917
0.00217153
0.00221907
0.00246888
0.00233371
0.00206814
0.00174474
0.00148453
0.00132512
0.00117366
0.00104026
0.00093578
0.000847316
0.000780251
0.000733635
0.000699578
0.000672181
0.000648604
0.000629137
0.000616002
0.000611103
0.000614794
0.00062571
0.000641757
0.000662032
0.000686058
0.0007137
0.000745119
0.000780837
0.000821971
0.000868773
0.000920896
0.000978611
0.00104219
0.00111166
0.00119492
0.00123137
0.00120616
0.00112189
0.00103761
)
;

boundaryField
{
    floor
    {
        type            nutkWallFunction;
        Cmu             0.09;
        kappa           0.41;
        E               9.8;
        value           nonuniform List<scalar> 
36
(
0.000117415
5.72029e-05
6.77264e-05
7.7138e-05
8.05098e-05
7.92227e-05
7.40004e-05
6.81715e-05
6.29059e-05
5.83029e-05
5.42703e-05
5.07209e-05
4.75915e-05
4.47968e-05
4.22341e-05
3.97872e-05
3.73132e-05
3.58347e-05
3.23299e-05
3.23298e-05
4.46852e-05
5.38131e-05
6.26459e-05
8.4629e-05
8.96382e-05
9.74412e-05
0.000117415
0.000153521
0.000128267
0.000105118
5.72029e-05
0.000105118
5.67066e-05
0.000123737
8.88824e-05
0.00014188
)
;
    }
    ceiling
    {
        type            nutkWallFunction;
        Cmu             0.09;
        kappa           0.41;
        E               9.8;
        value           nonuniform List<scalar> 
43
(
0.000246192
0.000251846
0.000256969
0.000283773
0.000269377
0.000240774
0.000205381
0.000176378
0.000158333
0.00014096
0.000125446
0.000113136
0.000102589
9.45068e-05
8.88411e-05
8.46749e-05
8.13059e-05
7.83935e-05
7.59792e-05
7.4345e-05
7.37344e-05
7.41945e-05
7.55532e-05
7.75453e-05
8.00537e-05
8.30144e-05
8.64053e-05
9.02407e-05
9.45777e-05
9.95435e-05
0.000105158
0.00011137
0.000118201
0.000125673
0.000133778
0.000143417
0.000147613
0.000144712
0.000134968
0.000125138
0.000343194
0.000407606
0.000234816
)
;
    }
    sWall
    {
        type            nutkWallFunction;
        Cmu             0.09;
        kappa           0.41;
        E               9.8;
        value           uniform 0.000246258;
    }
    nWall
    {
        type            nutkWallFunction;
        Cmu             0.09;
        kappa           0.41;
        E               9.8;
        value           nonuniform List<scalar> 6(9.74418e-05 0.000101045 0.000119708 0.000138739 0.000140474 0.000125145);
    }
    sideWalls
    {
        type            empty;
    }
    glass1
    {
        type            nutkWallFunction;
        Cmu             0.09;
        kappa           0.41;
        E               9.8;
        value           nonuniform List<scalar> 9(0.000128958 0.000171807 0.000206643 0.000239571 0.000272693 0.000307649 0.000341626 0.000349963 0.000343642);
    }
    glass2
    {
        type            nutkWallFunction;
        Cmu             0.09;
        kappa           0.41;
        E               9.8;
        value           nonuniform List<scalar> 2(0.000182232 0.00017084);
    }
    sun
    {
        type            nutkWallFunction;
        Cmu             0.09;
        kappa           0.41;
        E               9.8;
        value           nonuniform List<scalar> 
14
(
0.000128854
0.000139824
0.00014286
0.00014941
0.000155412
0.000161071
0.000166708
0.000172408
0.000177052
0.000179962
0.000180289
0.00017719
0.000169572
0.000153311
)
;
    }
    Table_master
    {
        type            nutkWallFunction;
        Cmu             0.09;
        kappa           0.41;
        E               9.8;
        value           nonuniform List<scalar> 9(9.98128e-05 8.73719e-05 7.68593e-05 6.82201e-05 6.11547e-05 5.53591e-05 5.05962e-05 4.67071e-05 4.36566e-05);
    }
    Table_slave
    {
        type            nutkWallFunction;
        Cmu             0.09;
        kappa           0.41;
        E               9.8;
        value           nonuniform List<scalar> 9(0.000112266 0.000103039 9.66991e-05 9.19879e-05 8.79815e-05 8.39785e-05 8.0156e-05 7.60931e-05 7.13113e-05);
    }
    inlet
    {
        type            calculated;
        value           uniform 0.000167705;
    }
    outlet
    {
        type            calculated;
        value           nonuniform List<scalar> 2(0.00211917 0.00217153);
    }
}


// ************************************************************************* //
