/*--------------------------------*- C++ -*----------------------------------*\
  =========                 |
  \\      /  F ield         | OpenFOAM: The Open Source CFD Toolbox
   \\    /   O peration     | Website:  https://openfoam.org
    \\  /    A nd           | Version:  6
     \\/     M anipulation  |
\*---------------------------------------------------------------------------*/
FoamFile
{
    version     2.0;
    format      ascii;
    class       volScalarField;
    location    "30";
    object      alphat;
}
// * * * * * * * * * * * * * * * * * * * * * * * * * * * * * * * * * * * * * //

dimensions      [1 -1 -1 0 0 0 0];

internalField   nonuniform List<scalar> 
458
(
0.00143303
0.00157811
0.00159902
0.0016802
0.00176369
0.00184948
0.00194359
0.00202739
0.00209401
0.00213226
0.00212487
0.00202632
0.00179478
0.0015186
0.00127479
0.000623013
0.000831914
0.000931905
0.000935841
0.000877965
0.00075409
0.000645675
0.000569468
0.000527708
0.000509878
0.000504232
0.000505445
0.00051619
0.000549364
0.000622668
0.000685866
0.000698574
0.000581424
0.00194795
0.00550377
0.00541234
0.0061541
0.00690338
0.0076386
0.00818669
0.00875988
0.00935256
0.0099345
0.0104571
0.0108001
0.0106012
0.00926086
0.00591557
0.0015971
0.00131378
0.000995292
0.00083252
0.00333469
0.00470428
0.00498415
0.00425356
0.00268976
0.00199055
0.00158996
0.00138761
0.0012978
0.00126705
0.00127544
0.00133886
0.0015415
0.00220388
0.00281963
0.00284924
0.000757472
0.00234838
0.00756963
0.00706598
0.00843612
0.0089884
0.00928924
0.00945405
0.0096991
0.0101175
0.0107791
0.0117209
0.0128174
0.013595
0.0131948
0.01117
0.00756973
0.00526872
0.00126971
0.00114449
0.00462739
0.00682343
0.00714721
0.00535447
0.00106124
0.000775767
0.00061936
0.00054421
0.000515026
0.000506819
0.000510071
0.000536387
0.00066823
0.00224016
0.00350092
0.00379016
0.000957421
0.00270188
0.00924324
0.0073616
0.00904227
0.00932318
0.00904985
0.00875815
0.0086644
0.00887104
0.00949334
0.0106344
0.0122082
0.0137188
0.014283
0.0136833
0.0116901
0.0089275
0.00432776
0.00143441
0.00326771
0.00658403
0.00884588
0.00894833
0.00620358
0.00122644
0.0011094
0.00109898
0.00111432
0.00114362
0.00118099
0.00122057
0.0012544
0.00127974
0.00262002
0.00415207
0.00463069
0.00123072
0.00303474
0.0110981
0.0078726
0.00897514
0.00932556
0.00874605
0.00811103
0.00781135
0.00785585
0.00837164
0.00947856
0.0111038
0.0127891
0.0140043
0.0143792
0.0136503
0.011791
0.00870834
0.00640403
0.00795424
0.0100023
0.0112776
0.0112681
0.00984137
0.00765981
0.00729111
0.00723331
0.00729588
0.00741712
0.0075493
0.00763591
0.00762433
0.0075259
0.00769138
0.00754753
0.00684996
0.00392116
0.00148516
0.00137654
0.00121438
0.00336593
0.0130004
0.00956921
0.00898725
0.00932587
0.00893484
0.00798225
0.00753056
0.00745957
0.00788153
0.00882476
0.0101988
0.0117828
0.0132636
0.0142868
0.0145333
0.0137686
0.012133
0.0109097
0.0116212
0.0126894
0.0133062
0.0131836
0.0124207
0.0114817
0.0110706
0.0109272
0.0109163
0.0109514
0.0109406
0.0107781
0.010401
0.00987434
0.00940599
0.00903144
0.00846232
0.00707424
0.00541632
0.00452894
0.00144467
0.00363695
0.0141308
0.0118394
0.00990443
0.00947267
0.00895267
0.00808407
0.00747368
0.00734199
0.00774822
0.00861552
0.00979137
0.0111429
0.0126086
0.014014
0.015007
0.0150869
0.0143755
0.0137589
0.0139679
0.0143638
0.0145164
0.0142973
0.0138031
0.0132544
0.0128813
0.0126568
0.0125129
0.0123634
0.0120862
0.0115386
0.0106959
0.0097329
0.00894862
0.00852379
0.00836386
0.00797151
0.00703365
0.0058436
0.00163538
0.00367743
0.0120368
0.0109539
0.0101928
0.00963323
0.00858082
0.00758428
0.0070765
0.00717965
0.00780685
0.0087575
0.00982984
0.0109498
0.0122975
0.0139719
0.0154103
0.0158236
0.0155273
0.0151269
0.0150025
0.0149438
0.0147732
0.0144536
0.0140392
0.013613
0.0132447
0.0129453
0.0126755
0.0123493
0.011819
0.0109384
0.00976271
0.00860215
0.00777165
0.00743099
0.00752637
0.00763221
0.00692888
0.00636477
0.00170205
0.00355935
0.00417182
0.00464605
0.00491407
0.00496708
0.00505918
0.0053675
0.00605607
0.00709055
0.00826581
0.00936224
0.0102796
0.0110913
0.0125115
0.0141589
0.0153007
0.0156399
0.015421
0.0150166
0.0146425
0.0142816
0.0138993
0.0134975
0.013096
0.0127088
0.0123355
0.0119957
0.0116723
0.0112975
0.0107129
0.00972917
0.00840309
0.00705329
0.00587751
0.00494726
0.0042382
0.00367515
0.00324171
0.0028699
0.00164112
0.00122107
0.00221872
0.00348277
0.00495861
0.00656329
0.00811686
0.00936309
0.0101534
0.0105437
0.0109292
0.0115297
0.0123515
0.0133179
0.0138746
0.0139207
0.0136137
0.0131383
0.0126208
0.0121159
0.0116522
0.0112424
0.0108824
0.0105546
0.0102265
0.00992554
0.00966398
0.0094285
0.00913427
0.00860955
0.00775461
0.00679157
0.00598274
0.00538846
0.00491885
0.00444186
0.00391895
0.00331255
0.00151953
0.00232684
0.00562787
0.00825447
0.00990555
0.0106534
0.0107707
0.0105374
0.0100487
0.00951829
0.00921239
0.00924625
0.00939552
0.00952511
0.00951768
0.00936415
0.0091051
0.00879684
0.00849619
0.00824001
0.00803892
0.00788399
0.00775809
0.00764128
0.0074954
0.00735572
0.00725547
0.00720438
0.00715792
0.00696447
0.00659983
0.00615782
0.00572299
0.00536489
0.0050613
0.00470176
0.00437006
0.00425052
0.00159675
0.00250415
0.00259495
0.00267107
0.00300961
0.00287553
0.00261642
0.0023785
0.00221113
0.00208248
0.00196026
0.00184553
0.0017468
0.00166664
0.00160498
0.00155692
0.0015157
0.0014773
0.00144022
0.00140528
0.00137478
0.00135026
0.00133143
0.00131682
0.0013048
0.00129434
0.00128875
0.00128478
0.00128344
0.00128583
0.00129236
0.00131014
0.0013402
0.00137795
0.00142199
0.00146586
0.0014882
0.00147404
0.00140431
0.00134986
0.00124086
)
;

boundaryField
{
    floor
    {
        type            compressible::alphatWallFunction;
        Prt             0.85;
        value           nonuniform List<scalar> 
36
(
0.000180447
8.79206e-05
0.000118511
0.000132804
0.000133358
0.0001251
0.000107207
9.12666e-05
7.98795e-05
7.35706e-05
7.08627e-05
7.00049e-05
7.01938e-05
7.18402e-05
7.68934e-05
8.79225e-05
9.72852e-05
9.91321e-05
8.16995e-05
8.16985e-05
0.00010773
0.000136431
0.000174571
0.000209194
0.000194484
0.000172288
0.000180445
0.00022401
0.000185778
0.00014164
8.79196e-05
0.000141639
0.00011862
0.000179814
0.000162662
0.000202298
)
;
    }
    ceiling
    {
        type            compressible::alphatWallFunction;
        Prt             0.85;
        value           nonuniform List<scalar> 
43
(
0.000341899
0.000353425
0.000363056
0.00040563
0.00038892
0.000356321
0.000326078
0.000304614
0.000288005
0.000272129
0.000257132
0.000244143
0.000233529
0.000225317
0.000218886
0.000213351
0.000208178
0.000203172
0.000198445
0.000194309
0.000190978
0.000188413
0.00018642
0.000184779
0.000183349
0.000182582
0.000182036
0.000181849
0.000182174
0.000183065
0.00018549
0.000189593
0.000194734
0.000200709
0.000206633
0.000209632
0.000207713
0.000198285
0.000190895
0.000175991
0.000473949
0.000548386
0.000319135
)
;
    }
    sWall
    {
        type            compressible::alphatWallFunction;
        Prt             0.85;
        value           uniform 0.000340665;
    }
    nWall
    {
        type            compressible::alphatWallFunction;
        Prt             0.85;
        value           nonuniform List<scalar> 6(0.000172092 0.000203475 0.000229012 0.000213518 0.000223845 0.00017568);
    }
    sideWalls
    {
        type            empty;
    }
    glass1
    {
        type            compressible::alphatWallFunction;
        Prt             0.85;
        value           nonuniform List<scalar> 9(0.000197591 0.000265194 0.000316516 0.000361117 0.000402596 0.000443427 0.000476564 0.000481608 0.000467432);
    }
    glass2
    {
        type            compressible::alphatWallFunction;
        Prt             0.85;
        value           nonuniform List<scalar> 2(0.000236775 0.000228725);
    }
    sun
    {
        type            compressible::alphatWallFunction;
        Prt             0.85;
        value           nonuniform List<scalar> 
14
(
0.00020208
0.000221569
0.000224339
0.000235141
0.000246196
0.000257497
0.000269833
0.000280757
0.0002894
0.000294339
0.000293352
0.000280506
0.000250179
0.000213474
)
;
    }
    Table_master
    {
        type            compressible::alphatWallFunction;
        Prt             0.85;
        value           nonuniform List<scalar> 9(0.000151073 0.0001104 8.73981e-05 7.61185e-05 7.16962e-05 7.04508e-05 7.09529e-05 7.49723e-05 9.47575e-05);
    }
    Table_slave
    {
        type            compressible::alphatWallFunction;
        Prt             0.85;
        value           nonuniform List<scalar> 9(0.00017405 0.000157846 0.000156387 0.000158513 0.000162573 0.00016774 0.000173198 0.000177853 0.000181344);
    }
    inlet
    {
        type            fixedValue;
        value           uniform 1.94e-05;
    }
    outlet
    {
        type            zeroGradient;
    }
}


// ************************************************************************* //
