/*--------------------------------*- C++ -*----------------------------------*\
  =========                 |
  \\      /  F ield         | OpenFOAM: The Open Source CFD Toolbox
   \\    /   O peration     | Website:  https://openfoam.org
    \\  /    A nd           | Version:  6
     \\/     M anipulation  |
\*---------------------------------------------------------------------------*/
FoamFile
{
    version     2.0;
    format      ascii;
    class       volScalarField;
    location    "30";
    object      epsilon;
}
// * * * * * * * * * * * * * * * * * * * * * * * * * * * * * * * * * * * * * //

dimensions      [0 2 -3 0 0 0 0];

internalField   nonuniform List<scalar> 
458
(
0.00067115
0.000893805
0.000929012
0.00107737
0.00124571
0.00143611
0.00166636
0.00189085
0.00208291
0.00219866
0.0021755
0.00188635
0.0013118
0.000795597
0.00047113
5.52503e-05
0.000131562
0.000184883
0.000187207
0.000154533
9.78701e-05
6.14268e-05
4.21617e-05
3.35764e-05
3.03052e-05
2.93186e-05
2.95357e-05
3.14658e-05
3.79458e-05
5.5278e-05
7.38473e-05
7.79558e-05
4.49201e-05
0.00168888
0.0020953
0.000813213
0.00076342
0.000798593
0.000869251
0.00098306
0.00111951
0.00124915
0.00132786
0.00131368
0.00118136
0.000902527
0.000656193
0.00049757
0.000926446
0.000515881
0.00022433
0.000131965
0.00014249
0.000147663
0.0001469
0.000136401
0.000110867
7.09373e-05
4.67196e-05
3.52237e-05
3.06773e-05
2.93001e-05
2.96917e-05
3.28351e-05
4.35777e-05
6.6185e-05
8.72352e-05
0.000113402
9.93181e-05
0.0029638
0.00452393
0.00101787
0.000733505
0.000738666
0.000813919
0.00093882
0.00109025
0.00122676
0.00131285
0.00132448
0.00123484
0.00100341
0.000747612
0.000548943
0.000481582
0.000391619
0.000466526
0.000342728
0.000211204
0.00018114
0.000174518
0.000180853
0.00027288
0.000106497
5.42026e-05
3.6805e-05
3.1224e-05
2.9769e-05
3.0353e-05
3.53117e-05
6.83572e-05
0.000119089
0.000141551
0.000180331
0.000200578
0.00452054
0.00845108
0.00151896
0.000784218
0.000740181
0.000826475
0.000987538
0.00116818
0.00130417
0.00138633
0.00141348
0.00134589
0.00112336
0.000845128
0.00060807
0.000458105
0.000367488
0.000362835
0.000673678
0.000390475
0.00025774
0.00021363
0.000204235
0.000227199
0.000421741
0.00031214
0.00030337
0.000316169
0.000341679
0.000376213
0.000415303
0.000450851
0.000478926
0.000307201
0.000254065
0.000273709
0.000426197
0.00641456
0.0139392
0.00262581
0.000982283
0.000818289
0.000920052
0.00118307
0.00140198
0.00151539
0.00157114
0.00158365
0.00149392
0.0012549
0.000940747
0.000664131
0.00047597
0.000367443
0.000332473
0.000377764
0.000317557
0.000263384
0.000232564
0.000219897
0.000220882
0.00023466
0.000220269
0.000215459
0.000218332
0.000227506
0.000242422
0.000262474
0.000285321
0.000305203
0.000305583
0.000303722
0.000315865
0.000382235
0.000748965
0.000596156
0.000409254
0.00876339
0.0198855
0.00504299
0.00170216
0.00120824
0.00127551
0.00169802
0.00186245
0.00189477
0.00189124
0.00185247
0.00170801
0.00140993
0.00103253
0.000706145
0.000488221
0.000369634
0.000325318
0.000323969
0.000296239
0.000264615
0.000242026
0.000228912
0.000223019
0.000221193
0.000216651
0.000215323
0.00021874
0.000227948
0.00024431
0.000269714
0.000304375
0.000344355
0.000380706
0.000405999
0.000409795
0.00042402
0.000472461
0.000613764
0.000688806
0.0110692
0.0236089
0.0092632
0.00428935
0.00298576
0.00283201
0.00277514
0.0026175
0.00246164
0.00234795
0.0022236
0.00198631
0.00158711
0.00111442
0.000724416
0.00048198
0.000364872
0.000321026
0.000307223
0.000286918
0.000264331
0.000246589
0.000235041
0.00022827
0.000224494
0.000222171
0.000222621
0.000227348
0.000238485
0.000259647
0.000296528
0.00035313
0.000427533
0.000511561
0.000601528
0.000677882
0.00070632
0.00068786
0.000871342
0.000998609
0.0114655
0.025158
0.0144283
0.00975044
0.00724639
0.00559561
0.00438882
0.00361823
0.00318128
0.00292419
0.00267745
0.00229559
0.00174891
0.00114649
0.000685945
0.000448512
0.000354648
0.000318136
0.000300868
0.000282821
0.000264852
0.000250816
0.000241375
0.000235492
0.000232143
0.00023098
0.000232661
0.000238858
0.000252825
0.000280955
0.000333985
0.000422747
0.000547271
0.000702523
0.00091251
0.00121817
0.00154235
0.00160321
0.002657
0.00112619
0.0104262
0.0167389
0.0124851
0.00935979
0.00717043
0.00564903
0.00466146
0.00411496
0.00382496
0.00357079
0.00317595
0.00254333
0.00176987
0.000971325
0.000573965
0.000415165
0.000349226
0.000319885
0.0003021
0.000285737
0.000271365
0.000260843
0.000254084
0.000250081
0.000248136
0.000248364
0.000251194
0.000258291
0.00027326
0.0003042
0.000366512
0.000474312
0.000608195
0.000719114
0.000799618
0.000876114
0.000970101
0.00110072
0.00127265
0.00101006
0.00247771
0.00342476
0.00420821
0.00478878
0.00515549
0.00525164
0.00498906
0.00434521
0.00337963
0.00203794
0.00111099
0.000689238
0.000491122
0.00040043
0.000357616
0.000334951
0.000319494
0.000307241
0.000298807
0.000294479
0.000293214
0.000293724
0.000295282
0.000298167
0.00030261
0.000309636
0.000320562
0.000338368
0.000370787
0.000432341
0.000529537
0.000657935
0.00080473
0.000947323
0.00104598
0.00107615
0.00104149
0.000801621
0.00269307
0.0106099
0.0110807
0.00968411
0.00779303
0.00602388
0.00437483
0.00295418
0.00189103
0.00118881
0.000786555
0.000582937
0.000476829
0.000420592
0.000390649
0.000375997
0.000372302
0.000378116
0.000391634
0.000409528
0.000428375
0.000446148
0.000461752
0.000473336
0.000484702
0.000497324
0.000510411
0.000520836
0.000525008
0.000529948
0.000557572
0.000619067
0.000706616
0.000795791
0.000843077
0.000847261
0.00122538
0.000929865
0.00342903
0.00381437
0.00416004
0.00602601
0.00530248
0.00402114
0.00303448
0.00244504
0.00204717
0.00171079
0.0014301
0.00121434
0.00105573
0.000943353
0.000861348
0.000794825
0.000735952
0.000681943
0.000633544
0.000593223
0.000562087
0.000538908
0.000521367
0.000507221
0.000495116
0.000488706
0.000484185
0.000482639
0.00048532
0.000492751
0.000513347
0.000549604
0.00059753
0.000656867
0.000719648
0.000752957
0.000731535
0.000632458
0.000561719
0.000436418
)
;

boundaryField
{
    floor
    {
        Cmu             0.09;
        kappa           0.41;
        E               9.8;
        type            epsilonWallFunction;
        value           nonuniform List<scalar> 
36
(
0.00047113
5.52503e-05
0.000131562
0.000184883
0.000187207
0.000154533
9.78701e-05
6.14268e-05
4.21617e-05
3.35764e-05
3.03052e-05
2.93186e-05
2.95357e-05
3.14658e-05
3.79458e-05
5.5278e-05
7.38473e-05
7.79558e-05
4.49201e-05
4.49201e-05
9.93181e-05
0.000200578
0.000426197
0.000748965
0.000596156
0.000409254
0.00047113
0.000926446
0.000515881
0.00022433
5.52503e-05
0.00022433
0.000131965
0.000466526
0.000342728
0.000673678
)
;
    }
    ceiling
    {
        Cmu             0.09;
        kappa           0.41;
        E               9.8;
        type            epsilonWallFunction;
        value           nonuniform List<scalar> 
43
(
0.00342903
0.00381437
0.00416004
0.00602601
0.00530248
0.00402114
0.00303448
0.00244504
0.00204717
0.00171079
0.0014301
0.00121434
0.00105573
0.000943353
0.000861348
0.000794825
0.000735952
0.000681943
0.000633544
0.000593223
0.000562087
0.000538908
0.000521367
0.000507221
0.000495116
0.000488706
0.000484185
0.000482639
0.00048532
0.000492751
0.000513347
0.000549604
0.00059753
0.000656867
0.000719648
0.000752957
0.000731535
0.000632458
0.000561719
0.000436418
0.0104262
0.0167389
0.00269307
)
;
    }
    sWall
    {
        Cmu             0.09;
        kappa           0.41;
        E               9.8;
        type            epsilonWallFunction;
        value           uniform 0.00342903;
    }
    nWall
    {
        Cmu             0.09;
        kappa           0.41;
        E               9.8;
        type            epsilonWallFunction;
        value           nonuniform List<scalar> 6(0.000409254 0.000688806 0.000998609 0.000801621 0.000929865 0.000436418);
    }
    sideWalls
    {
        type            empty;
    }
    glass1
    {
        Cmu             0.09;
        kappa           0.41;
        E               9.8;
        type            epsilonWallFunction;
        value           nonuniform List<scalar> 9(0.00067115 0.00168888 0.0029638 0.00452054 0.00641456 0.00876339 0.0110692 0.0114655 0.0104262);
    }
    glass2
    {
        Cmu             0.09;
        kappa           0.41;
        E               9.8;
        type            epsilonWallFunction;
        value           nonuniform List<scalar> 2(0.00112619 0.00101006);
    }
    sun
    {
        Cmu             0.09;
        kappa           0.41;
        E               9.8;
        type            epsilonWallFunction;
        value           nonuniform List<scalar> 
14
(
0.00067115
0.000893805
0.000929012
0.00107737
0.00124571
0.00143611
0.00166636
0.00189085
0.00208291
0.00219866
0.0021755
0.00188635
0.0013118
0.000795597
)
;
    }
    Table_master
    {
        Cmu             0.09;
        kappa           0.41;
        E               9.8;
        type            epsilonWallFunction;
        value           nonuniform List<scalar> 9(0.00027288 0.000106497 5.42026e-05 3.6805e-05 3.1224e-05 2.9769e-05 3.0353e-05 3.53117e-05 6.83572e-05);
    }
    Table_slave
    {
        Cmu             0.09;
        kappa           0.41;
        E               9.8;
        type            epsilonWallFunction;
        value           nonuniform List<scalar> 9(0.000421741 0.00031214 0.00030337 0.000316169 0.000341679 0.000376213 0.000415303 0.000450851 0.000478926);
    }
    inlet
    {
        type            turbulentMixingLengthDissipationRateInlet;
        mixingLength    0.01;
        phi             phi;
        k               k;
        value           uniform 0.000471672;
    }
    outlet
    {
        type            zeroGradient;
    }
}


// ************************************************************************* //
