/*--------------------------------*- C++ -*----------------------------------*\
  =========                 |
  \\      /  F ield         | OpenFOAM: The Open Source CFD Toolbox
   \\    /   O peration     | Website:  https://openfoam.org
    \\  /    A nd           | Version:  6
     \\/     M anipulation  |
\*---------------------------------------------------------------------------*/
FoamFile
{
    version     2.0;
    format      ascii;
    class       volScalarField;
    location    "30";
    object      T;
}
// * * * * * * * * * * * * * * * * * * * * * * * * * * * * * * * * * * * * * //

dimensions      [0 0 0 1 0 0 0];

internalField   nonuniform List<scalar> 
458
(
304.093
303.809
303.765
303.735
303.708
303.683
303.657
303.636
303.623
303.625
303.653
303.737
303.857
303.953
304.032
304.175
304.157
304.153
304.152
304.152
304.154
304.156
304.157
304.158
304.158
304.159
304.158
304.158
304.158
304.157
304.157
304.16
304.174
304.227
303.811
303.729
303.681
303.638
303.599
303.562
303.525
303.492
303.475
303.501
303.589
303.734
303.857
303.96
304.009
304.064
304.122
304.16
304.148
304.145
304.144
304.144
304.144
304.145
304.145
304.145
304.145
304.145
304.145
304.145
304.146
304.147
304.148
304.151
304.163
304.371
303.84
303.729
303.672
303.626
303.583
303.541
303.488
303.42
303.362
303.362
303.454
303.619
303.768
303.886
303.966
304.033
304.096
304.143
304.141
304.141
304.141
304.141
304.141
304.141
304.141
304.141
304.141
304.141
304.141
304.141
304.142
304.146
304.148
304.15
304.157
304.524
303.894
303.759
303.703
303.668
303.638
303.605
303.535
303.415
303.288
303.235
303.315
303.498
303.677
303.82
303.926
304.006
304.068
304.096
304.121
304.132
304.136
304.138
304.138
304.138
304.138
304.138
304.139
304.14
304.141
304.144
304.148
304.151
304.153
304.154
304.154
304.156
304.679
303.975
303.82
303.77
303.759
303.763
303.755
303.661
303.472
303.261
303.139
303.19
303.373
303.584
303.762
303.894
303.986
304.05
304.088
304.113
304.127
304.133
304.136
304.137
304.137
304.138
304.138
304.14
304.142
304.145
304.15
304.156
304.163
304.168
304.168
304.165
304.163
304.166
304.17
304.19
304.828
304.084
303.922
303.873
303.88
303.918
303.927
303.785
303.528
303.254
303.078
303.085
303.261
303.504
303.718
303.875
303.979
304.046
304.087
304.111
304.125
304.131
304.135
304.136
304.137
304.138
304.139
304.14
304.144
304.149
304.156
304.166
304.178
304.187
304.19
304.187
304.183
304.183
304.183
304.195
304.98
304.251
304.101
304.053
304.056
304.09
304.031
303.82
303.507
303.196
303
302.997
303.18
303.454
303.703
303.88
303.987
304.051
304.09
304.112
304.124
304.131
304.134
304.135
304.136
304.137
304.139
304.141
304.145
304.153
304.164
304.18
304.198
304.214
304.222
304.219
304.213
304.207
304.201
304.205
305.189
304.64
304.483
304.386
304.33
304.26
304.042
303.69
303.303
302.995
302.849
302.911
303.146
303.466
303.741
303.913
304.007
304.062
304.095
304.114
304.125
304.13
304.133
304.135
304.136
304.137
304.139
304.142
304.147
304.157
304.173
304.196
304.223
304.245
304.256
304.257
304.25
304.242
304.237
304.297
305.49
305.221
304.972
304.74
304.526
304.195
303.655
303.119
302.741
302.578
302.627
302.872
303.218
303.6
303.83
303.958
304.031
304.075
304.101
304.117
304.125
304.13
304.133
304.134
304.135
304.136
304.138
304.141
304.148
304.16
304.181
304.211
304.246
304.274
304.292
304.302
304.309
304.317
304.327
304.357
297.202
298.543
299.343
299.784
300.312
300.903
301.497
302.05
302.57
303.15
303.55
303.776
303.917
304.003
304.056
304.088
304.108
304.12
304.126
304.13
304.132
304.133
304.134
304.134
304.136
304.14
304.146
304.158
304.177
304.204
304.233
304.26
304.278
304.288
304.293
304.293
304.286
304.27
297.624
298.845
299.877
300.752
301.497
302.066
302.56
302.981
303.324
303.587
303.781
303.909
303.992
304.045
304.079
304.101
304.114
304.122
304.126
304.128
304.13
304.13
304.131
304.131
304.133
304.135
304.141
304.15
304.165
304.185
304.208
304.232
304.252
304.265
304.272
304.269
304.251
304.253
299.748
299.71
299.711
300.972
301.86
302.539
302.994
303.285
303.492
303.655
303.786
303.888
303.965
304.02
304.057
304.082
304.099
304.109
304.115
304.118
304.12
304.12
304.12
304.12
304.12
304.12
304.121
304.122
304.125
304.131
304.14
304.153
304.17
304.191
304.212
304.224
304.229
304.226
304.219
304.238
)
;

boundaryField
{
    floor
    {
        type            wallHeatTransfer;
        Tinf            uniform 305.2;
        alphaWall       uniform 0.24;
        value           nonuniform List<scalar> 
36
(
304.154
304.354
304.306
304.29
304.289
304.296
304.314
304.334
304.35
304.361
304.366
304.367
304.367
304.364
304.355
304.339
304.327
304.327
304.361
304.361
304.321
304.291
304.268
304.262
304.271
304.299
304.154
304.114
304.18
304.257
304.354
304.257
304.308
304.212
304.263
304.201
)
;
    }
    ceiling
    {
        type            wallHeatTransfer;
        Tinf            uniform 303.2;
        alphaWall       uniform 0.24;
        value           nonuniform List<scalar> 
43
(
299.959
299.917
299.914
301.09
301.933
302.578
303.007
303.279
303.471
303.621
303.74
303.831
303.9
303.948
303.98
304.002
304.015
304.023
304.027
304.028
304.028
304.028
304.027
304.026
304.025
304.025
304.026
304.027
304.03
304.035
304.044
304.058
304.075
304.096
304.117
304.129
304.133
304.126
304.117
304.128
305.386
305.14
297.987
)
;
    }
    sWall
    {
        type            wallHeatTransfer;
        Tinf            uniform 315.2;
        alphaWall       uniform 0.36;
        value           uniform 301.13;
    }
    nWall
    {
        type            wallHeatTransfer;
        Tinf            uniform 307.2;
        alphaWall       uniform 0.36;
        value           nonuniform List<scalar> 6(304.653 304.602 304.576 304.653 304.625 304.687);
    }
    sideWalls
    {
        type            empty;
    }
    glass1
    {
        type            wallHeatTransfer;
        Tinf            uniform 315.2;
        alphaWall       uniform 4.3;
        value           nonuniform List<scalar> 9(311.403 310.772 310.401 310.144 309.95 309.788 309.694 309.781 310.013);
    }
    glass2
    {
        type            wallHeatTransfer;
        Tinf            uniform 307.2;
        alphaWall       uniform 4.3;
        value           nonuniform List<scalar> 2(306.099 306.143);
    }
    sun
    {
        type            wallHeatTransfer;
        Tinf            uniform 305.2;
        alphaWall       uniform 0.24;
        value           nonuniform List<scalar> 
14
(
304.199
303.932
303.891
303.859
303.83
303.801
303.773
303.75
303.735
303.735
303.762
303.843
303.965
304.067
)
;
    }
    Table_master
    {
        type            zeroGradient;
    }
    Table_slave
    {
        type            zeroGradient;
    }
    inlet
    {
        type            fixedValue;
        value           uniform 295.15;
    }
    outlet
    {
        type            zeroGradient;
    }
}


// ************************************************************************* //
