/*--------------------------------*- C++ -*----------------------------------*\
  =========                 |
  \\      /  F ield         | OpenFOAM: The Open Source CFD Toolbox
   \\    /   O peration     | Website:  https://openfoam.org
    \\  /    A nd           | Version:  6
     \\/     M anipulation  |
\*---------------------------------------------------------------------------*/
FoamFile
{
    version     2.0;
    format      ascii;
    class       volScalarField;
    location    "47500.000000689899";
    object      epsilon;
}
// * * * * * * * * * * * * * * * * * * * * * * * * * * * * * * * * * * * * * //

dimensions      [0 2 -3 0 0 0 0];

internalField   nonuniform List<scalar> 
778
(
0.000253107
0.000306338
0.000303009
0.000344211
0.000385114
0.000424967
0.000464462
0.000504785
0.00054767
0.000595833
0.000644305
0.000692696
0.000742654
0.000798981
0.00086071
8.95069e-05
0.000262425
0.00026885
0.000249798
0.00021999
0.000184019
0.000152298
0.000126495
0.000105881
8.94158e-05
7.62685e-05
6.56194e-05
5.68268e-05
4.93639e-05
4.27578e-05
3.65102e-05
3.18121e-05
2.3597e-05
0.000796948
0.00144313
0.000287016
0.000259647
0.000261762
0.000267749
0.000276659
0.000290107
0.000310383
0.000340615
0.000379854
0.000430992
0.00049939
0.000600601
0.00078574
0.00112939
0.000978823
0.000858438
0.000511703
0.000369292
0.000294022
0.000242708
0.000203907
0.00018676
0.000154626
0.000124965
0.000100671
8.14669e-05
6.65072e-05
5.48054e-05
4.56169e-05
3.86952e-05
3.45047e-05
3.27422e-05
6.57625e-05
4.80628e-05
0.00163049
0.00407876
0.000407393
0.000242983
0.00022917
0.000231091
0.000238314
0.000250593
0.000268512
0.000292795
0.000324928
0.000366989
0.000421351
0.000495022
0.000601369
0.000724615
0.00082984
0.00158378
0.00102813
0.000512276
0.000367624
0.000294194
0.00026198
0.000550813
0.000362121
0.00025041
0.000181121
0.000136156
0.000105831
8.47191e-05
6.97762e-05
5.94275e-05
4.51052e-05
3.79539e-05
0.000108195
7.07321e-05
0.00285323
0.00876955
0.000709805
0.000240767
0.000202536
0.000200076
0.000203252
0.000209882
0.000220704
0.000237627
0.000263318
0.00030005
0.000349224
0.000412298
0.00048792
0.000560089
0.000612404
0.000824649
0.00156526
0.000728797
0.000459714
0.000358261
0.000301895
0.000291801
0.000813828
0.000612253
0.00048143
0.000388076
0.000318762
0.000264022
0.000218512
0.000178806
0.000141662
8.36487e-05
5.47933e-05
0.000148727
9.43303e-05
0.00454544
0.0158257
0.0013461
0.000258362
0.000175775
0.000166838
0.000165847
0.000167824
0.000173988
0.000187497
0.00021174
0.0002484
0.000297761
0.000359214
0.000427598
0.000488934
0.000528409
0.000582499
0.000627745
0.000483295
0.000393567
0.000331084
0.000282319
0.00024862
0.000247812
0.000226738
0.000202894
0.000181039
0.00016267
0.000146512
0.000131839
0.000118237
0.000105062
8.44238e-05
6.40865e-05
0.000105143
0.000138725
0.000160027
0.000374003
0.00032382
0.00676266
0.0248761
0.00255286
0.000318045
0.000155562
0.000137097
0.00013216
0.000130727
0.000134495
0.000148587
0.000176735
0.000218073
0.000270715
0.000333891
0.000401398
0.000462242
0.000502714
0.000521583
0.000504843
0.000438335
0.000373904
0.000315704
0.000264762
0.00022338
0.000193273
0.000169616
0.000150809
0.000135637
0.000123312
0.000112764
0.000103299
9.45218e-05
8.60645e-05
7.58768e-05
6.52691e-05
7.75066e-05
9.95872e-05
0.000213652
0.00109107
0.000551508
0.00967057
0.0336351
0.00458255
0.000464866
0.000150841
0.000116358
0.00010711
0.000103308
0.000107106
0.000127947
0.000166149
0.000215858
0.000273158
0.000339706
0.000408843
0.00046993
0.000509748
0.000520207
0.000494235
0.000437629
0.000371864
0.000307491
0.00025054
0.000204419
0.00016973
0.000144549
0.000126331
0.000112755
0.000102307
9.37382e-05
8.62345e-05
7.93362e-05
7.27734e-05
6.6115e-05
6.02969e-05
6.36248e-05
7.66483e-05
0.000177564
0.00163863
0.00090952
0.012757
0.0404056
0.00748838
0.000870869
0.000194203
0.000115368
9.73944e-05
9.14786e-05
9.86575e-05
0.000137753
0.000189317
0.000246214
0.000306844
0.000373411
0.000444192
0.000507435
0.000546877
0.000550608
0.000515529
0.000451465
0.000375445
0.000300893
0.000236418
0.000185917
0.000149289
0.000123978
0.000106725
9.45963e-05
8.57752e-05
7.88485e-05
7.29321e-05
6.75441e-05
6.24605e-05
5.76511e-05
5.39571e-05
5.55304e-05
6.99792e-05
0.000368202
0.00591478
0.00208893
0.0138263
0.0414626
0.0139296
0.00316095
0.000629089
0.000207803
0.000132636
0.000116002
0.000142464
0.000192962
0.000249318
0.000306359
0.000367105
0.000436161
0.000510427
0.000575053
0.000610342
0.000602758
0.000551876
0.00047074
0.000378282
0.000290728
0.000218117
0.00016394
0.000126747
0.000102612
8.7312e-05
7.73791e-05
7.07141e-05
6.57296e-05
6.15292e-05
5.76744e-05
5.40053e-05
5.06263e-05
4.83633e-05
5.14788e-05
9.33375e-05
0.00109768
0.0157082
0.00295297
0.0130043
0.0283758
0.0144146
0.00572352
0.00210215
0.000833603
0.000413322
0.000276777
0.000278964
0.000314596
0.000356083
0.000401616
0.0004583
0.000530389
0.000609327
0.000673308
0.000698105
0.000670142
0.000593385
0.00048627
0.000372239
0.000270358
0.000190936
0.000135667
0.000100663
7.98987e-05
6.80011e-05
6.12285e-05
5.71593e-05
5.42264e-05
5.16822e-05
4.92241e-05
4.68079e-05
4.46966e-05
4.41594e-05
5.30676e-05
0.000171434
0.00269863
0.0128023
0.0032073
0.0106907
0.0193617
0.0120391
0.00629857
0.00317273
0.00167348
0.000985975
0.000678579
0.000559778
0.000517211
0.000510317
0.000531281
0.000583377
0.000662295
0.000746933
0.000804547
0.000806814
0.000743581
0.000627408
0.000485325
0.000346857
0.000233048
0.000152256
0.000101725
7.35759e-05
5.8832e-05
5.13604e-05
4.79626e-05
4.61748e-05
4.48641e-05
4.35632e-05
4.21359e-05
4.06983e-05
3.99159e-05
4.2712e-05
6.64319e-05
0.000261152
0.00229001
0.0111043
0.0032883
0.00807391
0.0137725
0.00969278
0.00593262
0.00356865
0.00222651
0.00148998
0.00109222
0.000868808
0.000743278
0.000685701
0.000689923
0.000750316
0.000844546
0.00093211
0.00096833
0.000925857
0.000805132
0.000634026
0.00045104
0.000292012
0.000176775
0.000106839
6.93924e-05
5.24535e-05
4.43315e-05
4.05215e-05
3.91302e-05
3.85475e-05
3.80949e-05
3.74911e-05
3.66999e-05
3.606e-05
3.72806e-05
4.85989e-05
0.000122462
0.000518795
0.00233208
0.00903097
0.00319265
0.00612461
0.0101674
0.00779112
0.00531227
0.00356982
0.00246872
0.00178753
0.00136788
0.00109269
0.000925871
0.000859092
0.00088657
0.000982828
0.00109779
0.00117015
0.00115083
0.0010273
0.000821564
0.000585211
0.000367293
0.000207451
0.000114158
7.19757e-05
5.21855e-05
4.27302e-05
3.79516e-05
3.56372e-05
3.48292e-05
3.45456e-05
3.43548e-05
3.40792e-05
3.38207e-05
3.45589e-05
4.13969e-05
8.15933e-05
0.000275102
0.000924356
0.002714
0.00677331
0.00284102
0.00617977
0.00781252
0.0068043
0.00473942
0.00336548
0.00246218
0.00186552
0.00146218
0.00119448
0.00106449
0.00107028
0.00118041
0.00132999
0.00143896
0.00144017
0.00130234
0.0010525
0.000742155
0.000455806
0.000237637
0.000130895
8.18852e-05
6.00416e-05
4.91064e-05
4.28237e-05
3.89156e-05
3.66119e-05
3.56012e-05
3.52107e-05
3.51334e-05
3.52773e-05
3.59331e-05
3.89096e-05
5.29324e-05
0.000116875
0.000364525
0.00109149
0.00275395
0.00546009
0.00256194
0.0045444
0.00511434
0.00418561
0.0033623
0.00264018
0.00207048
0.00164932
0.00136203
0.00124486
0.00130039
0.0014782
0.00168736
0.00182594
0.00181913
0.00164071
0.00130564
0.000912078
0.000520154
0.000279102
0.000155764
0.000102746
7.96938e-05
6.77743e-05
5.98541e-05
5.37786e-05
4.91167e-05
4.59844e-05
4.45455e-05
4.43799e-05
4.52227e-05
4.70684e-05
5.03036e-05
5.6911e-05
7.52925e-05
0.000136773
0.000340266
0.000918487
0.00226011
0.00530899
0.00277358
0.00140032
0.00143091
0.00143361
0.00135491
0.00131286
0.00142381
0.00170785
0.00204313
0.00230672
0.00240662
0.00229361
0.00198314
0.00153682
0.000985062
0.000572132
0.000314867
0.000189813
0.000137429
0.000115616
0.000103988
9.53704e-05
8.76851e-05
8.07122e-05
7.49983e-05
7.14073e-05
7.07239e-05
7.30665e-05
7.83477e-05
8.66785e-05
9.82578e-05
0.000114372
0.000140954
0.000198327
0.000346091
0.000751804
0.00207072
0.00417032
0.00333273
0.00118803
0.00171832
0.00195624
0.00231248
0.00275953
0.00316416
0.00334299
0.00330886
0.00308636
0.00269699
0.00212994
0.00151392
0.000981048
0.000579726
0.000347591
0.000238033
0.000193866
0.000175384
0.000165146
0.000157142
0.000149611
0.000142288
0.000135746
0.000131183
0.000130155
0.000134165
0.000144004
0.000160439
0.000184076
0.0002153
0.000255303
0.000308994
0.000391675
0.000544994
0.000897424
0.00230803
0.00369214
0.00354679
0.00741488
0.00805286
0.0048082
0.00340825
0.00374427
0.00415409
0.00416521
0.00395174
0.00359293
0.00313613
0.00262939
0.00208764
0.00154035
0.00105763
0.00069583
0.000471886
0.000362868
0.000316852
0.000296854
0.000286479
0.000279999
0.000275021
0.000270149
0.000264725
0.000259211
0.000255414
0.000256063
0.00026383
0.00028024
0.000307328
0.000347051
0.000401892
0.000476135
0.000579187
0.000732872
0.000987871
0.00148156
0.00297864
0.00469818
0.00352614
0.00650267
0.00512809
0.00437004
0.0046255
0.00454984
0.00428319
0.00370189
0.00305377
0.00246618
0.00197198
0.00156841
0.0012458
0.00099518
0.000811646
0.000685842
0.000598791
0.000539314
0.000500838
0.000478511
0.000469265
0.000470488
0.000479357
0.000492836
0.000508117
0.000523254
0.000537702
0.000552553
0.000570441
0.000596324
0.000634972
0.000691946
0.000775052
0.000896392
0.00107693
0.00135412
0.00178465
0.00244623
0.00376696
0.00636858
0.0034122
0.00536112
0.00337156
0.00332316
0.00362316
0.00388579
0.00355313
0.00295972
0.00235743
0.00184514
0.00143519
0.00111167
0.000859091
0.000669912
0.000540407
0.000464553
0.000432433
0.000423278
0.000428332
0.000443528
0.000466139
0.000493724
0.000524021
0.000555192
0.000586092
0.000616462
0.000647013
0.000679323
0.000715508
0.000757844
0.000808464
0.000869794
0.000945993
0.00104517
0.00118271
0.00138461
0.00168658
0.00212494
0.00271976
0.00344474
0.00280469
)
;

boundaryField
{
    floor
    {
        Cmu             0.09;
        kappa           0.41;
        E               9.8;
        type            epsilonWallFunction;
        value           nonuniform List<scalar> 
36
(
0.00086071
8.95069e-05
0.000262425
0.00026885
0.000249798
0.00021999
0.000184019
0.000152298
0.000126495
0.000105881
8.94158e-05
7.62685e-05
6.56194e-05
5.68268e-05
4.93639e-05
4.27578e-05
3.65102e-05
3.18121e-05
2.3597e-05
2.3597e-05
4.80628e-05
7.07321e-05
9.43303e-05
0.000160027
0.000374003
0.00032382
0.00086071
0.00112939
0.000978823
0.000858438
8.95069e-05
0.000858438
0.000511703
0.00158378
0.00102813
0.00156526
)
;
    }
    ceiling
    {
        Cmu             0.09;
        kappa           0.41;
        E               9.8;
        type            epsilonWallFunction;
        value           nonuniform List<scalar> 
43
(
0.00536112
0.00337156
0.00332316
0.00362316
0.00388579
0.00355313
0.00295972
0.00235743
0.00184514
0.00143519
0.00111167
0.000859091
0.000669912
0.000540407
0.000464553
0.000432433
0.000423278
0.000428332
0.000443528
0.000466139
0.000493724
0.000524021
0.000555192
0.000586092
0.000616462
0.000647013
0.000679323
0.000715508
0.000757844
0.000808464
0.000869794
0.000945993
0.00104517
0.00118271
0.00138461
0.00168658
0.00212494
0.00271976
0.00344474
0.00280469
0.0045444
0.00511434
0.00118803
)
;
    }
    sWall
    {
        Cmu             0.09;
        kappa           0.41;
        E               9.8;
        type            epsilonWallFunction;
        value           nonuniform List<scalar> 9(0.0130043 0.0106907 0.00807391 0.00612461 0.00617977 0.0045444 0.00741488 0.00650267 0.00536112);
    }
    nWall
    {
        Cmu             0.09;
        kappa           0.41;
        E               9.8;
        type            epsilonWallFunction;
        value           nonuniform List<scalar> 
14
(
0.00032382
0.000551508
0.00090952
0.0032073
0.0032883
0.00319265
0.00284102
0.00256194
0.00277358
0.00333273
0.00354679
0.00352614
0.0034122
0.00280469
)
;
    }
    sideWalls
    {
        type            empty;
    }
    glass1
    {
        Cmu             0.09;
        kappa           0.41;
        E               9.8;
        type            epsilonWallFunction;
        value           nonuniform List<scalar> 9(0.000253107 0.000796948 0.00163049 0.00285323 0.00454544 0.00676266 0.00967057 0.012757 0.0138263);
    }
    glass2
    {
        Cmu             0.09;
        kappa           0.41;
        E               9.8;
        type            epsilonWallFunction;
        value           nonuniform List<scalar> 2(0.00208893 0.00295297);
    }
    sun
    {
        Cmu             0.09;
        kappa           0.41;
        E               9.8;
        type            epsilonWallFunction;
        value           nonuniform List<scalar> 
14
(
0.000253107
0.000306338
0.000303009
0.000344211
0.000385114
0.000424967
0.000464462
0.000504785
0.00054767
0.000595833
0.000644305
0.000692696
0.000742654
0.000798981
)
;
    }
    Table_master
    {
        Cmu             0.09;
        kappa           0.41;
        E               9.8;
        type            epsilonWallFunction;
        value           nonuniform List<scalar> 9(0.000550813 0.000362121 0.00025041 0.000181121 0.000136156 0.000105831 8.47191e-05 6.97762e-05 5.94275e-05);
    }
    Table_slave
    {
        Cmu             0.09;
        kappa           0.41;
        E               9.8;
        type            epsilonWallFunction;
        value           nonuniform List<scalar> 9(0.000813828 0.000612253 0.00048143 0.000388076 0.000318762 0.000264022 0.000218512 0.000178806 0.000141662);
    }
    inlet
    {
        type            turbulentMixingLengthDissipationRateInlet;
        mixingLength    0.01;
        phi             phi;
        k               k;
        value           uniform 0.000471671;
    }
    outlet
    {
        type            zeroGradient;
    }
}


// ************************************************************************* //
