/*--------------------------------*- C++ -*----------------------------------*\
  =========                 |
  \\      /  F ield         | OpenFOAM: The Open Source CFD Toolbox
   \\    /   O peration     | Website:  https://openfoam.org
    \\  /    A nd           | Version:  6
     \\/     M anipulation  |
\*---------------------------------------------------------------------------*/
FoamFile
{
    version     2.0;
    format      ascii;
    class       volScalarField;
    location    "47500.000000689899";
    object      k;
}
// * * * * * * * * * * * * * * * * * * * * * * * * * * * * * * * * * * * * * //

dimensions      [0 2 -2 0 0 0 0];

internalField   nonuniform List<scalar> 
778
(
0.00158588
0.00180109
0.00178802
0.00194664
0.00209795
0.0022403
0.00237703
0.00251269
0.00265306
0.00280641
0.00295662
0.00310287
0.00325031
0.00341265
0.00358623
0.000793058
0.00162457
0.00165097
0.00157202
0.00144433
0.00128226
0.00113031
0.000998733
0.000887043
0.00079252
0.000712794
0.000644796
0.000585827
0.000533343
0.000484631
0.000436191
0.00039792
0.000326066
0.00340686
0.0064332
0.00268759
0.00274626
0.002888
0.00305464
0.00323505
0.00343087
0.00364415
0.00387449
0.00412653
0.00438016
0.00459569
0.00470064
0.00459466
0.00429829
0.00390724
0.00357992
0.0025356
0.00281139
0.00295322
0.00289537
0.00266256
0.00226391
0.00190499
0.00160899
0.00136943
0.0011757
0.00101693
0.000885152
0.000773906
0.000681101
0.000615083
0.000574535
0.000864214
0.00052393
0.00549053
0.0127804
0.00347799
0.00321234
0.00329772
0.0034556
0.00363702
0.00384124
0.00407161
0.00432823
0.00463625
0.00501141
0.0054512
0.00596016
0.00653051
0.00685862
0.00627652
0.00538514
0.00403739
0.00416871
0.00417139
0.00397349
0.00357541
0.0026632
0.00201358
0.00157459
0.00126876
0.00104896
0.000886763
0.000764518
0.000671746
0.000603567
0.000551396
0.000548595
0.00116569
0.000677869
0.00797307
0.0217568
0.004491
0.00339096
0.00334178
0.00343838
0.00354977
0.00366928
0.00380954
0.00399188
0.00425971
0.00464895
0.00517141
0.00582494
0.0065539
0.00713326
0.00722693
0.00724194
0.00534309
0.00555052
0.0053762
0.00512522
0.00478637
0.00434733
0.0034548
0.00285773
0.00243457
0.00210868
0.00184946
0.00163115
0.00143786
0.00125793
0.00107705
0.000800058
0.000659343
0.00142229
0.0008213
0.0108756
0.0336318
0.00621213
0.00342515
0.00315851
0.00316721
0.00318984
0.00321016
0.00325246
0.00336148
0.00359515
0.00398955
0.00455355
0.00527639
0.00608617
0.00681643
0.00728241
0.00764369
0.00751758
0.00665427
0.00607343
0.00557905
0.00509891
0.00462896
0.00412238
0.00366471
0.00327407
0.00293643
0.0026303
0.00234696
0.00207848
0.00181775
0.00155417
0.001221
0.000929255
0.00118997
0.0012156
0.00116824
0.00205757
0.00186908
0.0141736
0.0475948
0.00928221
0.00349001
0.00290868
0.0028229
0.00276457
0.00269973
0.00266442
0.00273479
0.00298107
0.00341443
0.00402333
0.00479683
0.00565218
0.00645916
0.00706711
0.0074062
0.00732319
0.00678968
0.00621502
0.00563715
0.0050742
0.00455574
0.00409091
0.00369521
0.00336265
0.00307321
0.00280632
0.00255105
0.00229844
0.00204155
0.0017731
0.00147059
0.00117722
0.0011116
0.00111005
0.00172777
0.00515611
0.00266554
0.0179902
0.0606022
0.0143565
0.00381912
0.0027152
0.00252944
0.00241186
0.00229413
0.00222117
0.00231173
0.00263052
0.00313937
0.00380148
0.00462951
0.00552601
0.0063638
0.00699819
0.00732615
0.0072533
0.00681747
0.00621507
0.0055546
0.0049117
0.00434257
0.00387229
0.00350029
0.00320667
0.00296177
0.00274139
0.00252908
0.00231327
0.00208668
0.00184455
0.00158236
0.00132663
0.00115818
0.00109058
0.00157357
0.00637006
0.0037208
0.0216388
0.0704791
0.0214314
0.00510045
0.00274239
0.00237166
0.00221005
0.00208189
0.00202632
0.00221964
0.00265009
0.00323101
0.00393641
0.00477242
0.0056957
0.00656968
0.00722012
0.0075113
0.0073826
0.00689519
0.00619751
0.00542641
0.00469111
0.0040642
0.0035743
0.0032125
0.00294784
0.00274128
0.00256465
0.00239627
0.00222227
0.00203513
0.00183155
0.00161263
0.00139698
0.0012265
0.00115062
0.00215564
0.0147106
0.00647768
0.0228317
0.0694968
0.0325285
0.0110492
0.00406374
0.00258636
0.0022351
0.0021028
0.00218986
0.0025127
0.00300096
0.00360215
0.00433141
0.00520984
0.00618084
0.00708274
0.00771278
0.00791965
0.00766215
0.00702375
0.00616388
0.00524744
0.00440678
0.00372202
0.00321651
0.00286898
0.00263589
0.00246954
0.00233696
0.0022121
0.00207994
0.0019333
0.00177003
0.00159293
0.001416
0.00127762
0.00131469
0.00413815
0.0300809
0.00815866
0.0219176
0.0516419
0.0336413
0.0174256
0.00857977
0.00475429
0.0032588
0.00272911
0.00285266
0.00321107
0.00367276
0.00424604
0.00499333
0.00593432
0.00696871
0.00788186
0.00843675
0.00847986
0.00800024
0.00712085
0.00603874
0.00495208
0.00401034
0.00329024
0.00279782
0.00248881
0.0023026
0.00218484
0.00209712
0.0020125
0.00191739
0.0018062
0.00167813
0.00153691
0.00139467
0.00129643
0.00159661
0.00833211
0.0271464
0.00862048
0.0192341
0.039444
0.0302384
0.0195613
0.012176
0.00793322
0.00571309
0.00466653
0.00436044
0.00439872
0.00465152
0.00514315
0.0059307
0.00697447
0.00808132
0.00895801
0.00933861
0.00909274
0.00826915
0.00705595
0.00570717
0.00445674
0.00346035
0.00276829
0.00234829
0.00211506
0.00199051
0.00192378
0.0018744
0.00182093
0.00175343
0.00166833
0.00156652
0.0014541
0.00134737
0.00132924
0.00202203
0.00835776
0.0262221
0.00876626
0.0159511
0.0315916
0.0266526
0.0195371
0.0139726
0.0102803
0.00802348
0.0067472
0.00604595
0.00572859
0.00578
0.00626942
0.00720151
0.00840788
0.0095579
0.0102777
0.0103086
0.00959161
0.00828144
0.00665818
0.00504909
0.00371656
0.00279158
0.00223341
0.00195403
0.00181439
0.00174586
0.00171264
0.00168561
0.00165026
0.00159941
0.00153056
0.00144598
0.00135774
0.00130142
0.00151774
0.00314672
0.00914779
0.0235835
0.00860234
0.0132674
0.0256745
0.0233529
0.0186897
0.0145822
0.0115859
0.00954081
0.00820709
0.00729779
0.00683773
0.00695377
0.00771109
0.00896573
0.0103514
0.0113971
0.0117042
0.0111095
0.0096948
0.00778135
0.00575245
0.00402361
0.00283236
0.00219274
0.00186072
0.00169676
0.00161581
0.00157605
0.00155532
0.00153483
0.00150489
0.00146018
0.00139943
0.00132863
0.00127411
0.00135879
0.00215564
0.00474132
0.0102548
0.0190755
0.00795559
0.013347
0.0224223
0.02206
0.0177609
0.0143924
0.0118933
0.0100827
0.00876809
0.00791729
0.00777165
0.00846542
0.00985385
0.0115072
0.0128574
0.0133999
0.0128517
0.0112884
0.00898483
0.00651452
0.0043041
0.0029598
0.00222258
0.00185266
0.00166487
0.00156529
0.00150919
0.00147553
0.00145218
0.00142699
0.00139352
0.00134862
0.00129334
0.00123944
0.0012353
0.00147763
0.00259834
0.00549366
0.0104705
0.0162021
0.00742299
0.0108739
0.0117651
0.0129247
0.0125541
0.0113765
0.0100772
0.00894975
0.00820596
0.00830314
0.00941017
0.0112766
0.0133377
0.014931
0.0155238
0.0148516
0.0129032
0.0101707
0.0070249
0.00464106
0.00313862
0.00235047
0.001961
0.00175987
0.00164068
0.00155986
0.00150036
0.00145474
0.00141803
0.00138202
0.00134331
0.00130294
0.00126712
0.00125333
0.00131451
0.00161908
0.00263892
0.00517475
0.00969809
0.0169987
0.00781863
0.00354403
0.00482614
0.00600248
0.00661222
0.00729335
0.00880343
0.0113109
0.0141266
0.0165308
0.0179647
0.0180716
0.0167719
0.0142658
0.0106473
0.00734738
0.00484759
0.00334258
0.00257326
0.00220939
0.00202025
0.00189815
0.0018015
0.00171688
0.00164193
0.00157886
0.00153138
0.00149934
0.00148582
0.00149828
0.00154389
0.00163189
0.00179441
0.00213984
0.00295963
0.0049375
0.00991577
0.0152923
0.00884342
0.00444582
0.00630015
0.00812486
0.0110435
0.0147173
0.0181682
0.0203898
0.021439
0.0213603
0.0201479
0.0176242
0.0141683
0.0105194
0.00723106
0.00490618
0.00356295
0.00291259
0.00261339
0.00245846
0.00235793
0.00227857
0.0022081
0.0021433
0.00208691
0.00204652
0.00203327
0.00205748
0.00212999
0.00225812
0.00244287
0.00268531
0.00300595
0.00348124
0.00431055
0.00603518
0.0114724
0.0149649
0.00921884
0.0150708
0.0244285
0.0180976
0.0144132
0.0170436
0.0207408
0.0228652
0.0235546
0.0230845
0.0217176
0.0197003
0.0170658
0.0139096
0.0106081
0.00766393
0.0054941
0.00424391
0.00364247
0.00336458
0.00322559
0.0031521
0.00311364
0.00309175
0.0030723
0.00304788
0.00302205
0.00301004
0.00303307
0.0031082
0.00324865
0.00346174
0.00375274
0.00413237
0.00463443
0.00534706
0.00646796
0.00848276
0.0137675
0.0177808
0.00919218
0.0138079
0.0170474
0.0178828
0.0207917
0.021738
0.0221604
0.0211638
0.0193487
0.0172267
0.01505
0.0129213
0.0108905
0.00901068
0.00738163
0.00610492
0.00517992
0.00457405
0.00420367
0.00399348
0.00390211
0.00390476
0.00397859
0.00409747
0.00423323
0.00436114
0.00446725
0.00455441
0.00464265
0.0047658
0.00494801
0.00520998
0.00557389
0.00607129
0.00675893
0.00773381
0.00911706
0.0110731
0.0148892
0.0211569
0.00899667
0.0121406
0.00891162
0.00882613
0.00934966
0.00979623
0.00922893
0.00817053
0.00702074
0.0059628
0.00504321
0.00425348
0.00358182
0.00303433
0.00262928
0.00237709
0.00226628
0.00223424
0.00225208
0.0023051
0.0023828
0.00247584
0.00257599
0.002677
0.00277526
0.00287016
0.00296409
0.00306187
0.0031696
0.0032934
0.00343848
0.00361035
0.00381855
0.00408165
0.00443355
0.00492655
0.00562101
0.00655849
0.00773208
0.00905133
0.00789038
)
;

boundaryField
{
    floor
    {
        type            kqRWallFunction;
        value           nonuniform List<scalar> 
36
(
0.00358623
0.000793058
0.00162457
0.00165097
0.00157202
0.00144433
0.00128226
0.00113031
0.000998733
0.000887043
0.00079252
0.000712794
0.000644796
0.000585827
0.000533343
0.000484631
0.000436191
0.00039792
0.000326066
0.000326066
0.00052393
0.000677869
0.0008213
0.00116824
0.00205757
0.00186908
0.00358623
0.00429829
0.00390724
0.00357992
0.000793058
0.00357992
0.0025356
0.00538514
0.00403739
0.00534309
)
;
    }
    ceiling
    {
        type            kqRWallFunction;
        value           nonuniform List<scalar> 
43
(
0.0121406
0.00891162
0.00882613
0.00934966
0.00979623
0.00922893
0.00817053
0.00702074
0.0059628
0.00504321
0.00425348
0.00358182
0.00303433
0.00262928
0.00237709
0.00226628
0.00223424
0.00225208
0.0023051
0.0023828
0.00247584
0.00257599
0.002677
0.00277526
0.00287016
0.00296409
0.00306187
0.0031696
0.0032934
0.00343848
0.00361035
0.00381855
0.00408165
0.00443355
0.00492655
0.00562101
0.00655849
0.00773208
0.00905133
0.00789038
0.0108739
0.0117651
0.00444582
)
;
    }
    sWall
    {
        type            kqRWallFunction;
        value           nonuniform List<scalar> 9(0.0219176 0.0192341 0.0159511 0.0132674 0.013347 0.0108739 0.0150708 0.0138079 0.0121406);
    }
    nWall
    {
        type            kqRWallFunction;
        value           nonuniform List<scalar> 
14
(
0.00186908
0.00266554
0.0037208
0.00862048
0.00876626
0.00860234
0.00795559
0.00742299
0.00781863
0.00884342
0.00921884
0.00919218
0.00899667
0.00789038
)
;
    }
    sideWalls
    {
        type            empty;
    }
    glass1
    {
        type            kqRWallFunction;
        value           nonuniform List<scalar> 9(0.00158588 0.00340686 0.00549053 0.00797307 0.0108756 0.0141736 0.0179902 0.0216388 0.0228317);
    }
    glass2
    {
        type            kqRWallFunction;
        value           nonuniform List<scalar> 2(0.00647768 0.00815866);
    }
    sun
    {
        type            kqRWallFunction;
        value           nonuniform List<scalar> 
14
(
0.00158588
0.00180109
0.00178802
0.00194664
0.00209795
0.0022403
0.00237703
0.00251269
0.00265306
0.00280641
0.00295662
0.00310287
0.00325031
0.00341265
)
;
    }
    Table_master
    {
        type            kqRWallFunction;
        value           nonuniform List<scalar> 9(0.0026632 0.00201358 0.00157459 0.00126876 0.00104896 0.000886763 0.000764518 0.000671746 0.000603567);
    }
    Table_slave
    {
        type            kqRWallFunction;
        value           nonuniform List<scalar> 9(0.0034548 0.00285773 0.00243457 0.00210868 0.00184946 0.00163115 0.00143786 0.00125793 0.00107705);
    }
    inlet
    {
        type            turbulentIntensityKineticEnergyInlet;
        intensity       0.05;
        value           uniform 0.0009375;
    }
    outlet
    {
        type            zeroGradient;
    }
}


// ************************************************************************* //
