/*--------------------------------*- C++ -*----------------------------------*\
  =========                 |
  \\      /  F ield         | OpenFOAM: The Open Source CFD Toolbox
   \\    /   O peration     | Website:  https://openfoam.org
    \\  /    A nd           | Version:  6
     \\/     M anipulation  |
\*---------------------------------------------------------------------------*/
FoamFile
{
    version     2.0;
    format      ascii;
    class       volVectorField;
    location    "47500.000000689899";
    object      U;
}
// * * * * * * * * * * * * * * * * * * * * * * * * * * * * * * * * * * * * * //

dimensions      [0 1 -1 0 0 0 0];

internalField   nonuniform List<vector> 
778
(
(0.0655976 0.0794094 0)
(-0.155177 0.0157693 0)
(-0.164312 0.0146306 0)
(-0.192439 0.0122809 0)
(-0.216886 0.00872984 0)
(-0.236955 0.0047469 0)
(-0.25209 0.000417082 0)
(-0.261863 -0.00437175 0)
(-0.265761 -0.0098177 0)
(-0.262781 -0.0162007 0)
(-0.250968 -0.0242765 0)
(-0.226257 -0.0348964 0)
(-0.186125 -0.0504178 0)
(-0.144191 -0.0751881 0)
(-0.150102 -0.10858 0)
(0.0546273 0.0354381 0)
(0.0157084 -0.026842 0)
(0.0448565 -0.0232354 0)
(0.0692073 -0.0161333 0)
(0.0842191 -0.0103323 0)
(0.0913975 -0.00640893 0)
(0.0942255 -0.00433786 0)
(0.0952646 -0.00331512 0)
(0.0957214 -0.00272679 0)
(0.0958904 -0.00231317 0)
(0.0957619 -0.00194916 0)
(0.0952333 -0.00151019 0)
(0.0939772 -0.000758723 0)
(0.0911369 0.000841655 0)
(0.0849472 0.00405811 0)
(0.073438 0.00775184 0)
(0.0598393 0.0115783 0)
(-0.00801882 0.0299457 0)
(0.258395 0.167395 0)
(-0.161235 0.0483996 0)
(-0.141613 0.0459934 0)
(-0.174027 0.0416302 0)
(-0.199401 0.0356834 0)
(-0.220133 0.0291426 0)
(-0.236172 0.0220671 0)
(-0.24743 0.014231 0)
(-0.253608 0.00529194 0)
(-0.253923 -0.00516422 0)
(-0.247763 -0.017099 0)
(-0.234051 -0.0308681 0)
(-0.214139 -0.0480919 0)
(-0.197562 -0.0699737 0)
(-0.194043 -0.0826598 0)
(-0.166418 -0.0425921 0)
(-0.105343 -0.0364189 0)
(-0.0983406 -0.0444999 0)
(0.109333 -0.0420081 0)
(0.0644425 -0.0410811 0)
(0.0718314 -0.0321865 0)
(0.0857553 -0.0206361 0)
(0.0935978 -0.0103973 0)
(0.0957972 -0.00362154 0)
(0.095551 -0.000201185 0)
(0.0951673 0.00124508 0)
(0.0951345 0.0018983 0)
(0.0952167 0.0022746 0)
(0.0952238 0.00259525 0)
(0.095123 0.00313345 0)
(0.0948316 0.00440891 0)
(0.0935755 0.0077161 0)
(0.0879827 0.0167335 0)
(0.0742433 0.0252806 0)
(0.0629725 0.032847 0)
(-0.0521629 0.0634597 0)
(0.429974 0.253958 0)
(-0.194232 0.0847716 0)
(-0.112787 0.0784532 0)
(-0.148261 0.0669803 0)
(-0.170703 0.0555252 0)
(-0.188807 0.0437496 0)
(-0.202653 0.03136 0)
(-0.212351 0.018014 0)
(-0.217704 0.00339448 0)
(-0.218061 -0.0126468 0)
(-0.2128 -0.0303465 0)
(-0.20169 -0.0499337 0)
(-0.186048 -0.0715917 0)
(-0.169517 -0.0932311 0)
(-0.151152 -0.104582 0)
(-0.120316 -0.0931674 0)
(-0.079625 -0.0949783 0)
(-0.0715763 -0.107625 0)
(0.0920545 -0.0880789 0)
(0.0625028 -0.0656393 0)
(0.0742782 -0.0459983 0)
(0.0878719 -0.0291051 0)
(0.0946497 -0.0147511 0)
(0.0916909 -0.011948 0)
(0.087467 -0.0079454 0)
(0.0851035 -0.00579628 0)
(0.0844033 -0.00457151 0)
(0.0843768 -0.00380241 0)
(0.0846358 -0.00322563 0)
(0.0852914 -0.00259816 0)
(0.0870526 -0.00144126 0)
(0.0917308 0.00291306 0)
(0.0898695 0.0250844 0)
(0.0730523 0.0422777 0)
(0.0698858 0.0572763 0)
(-0.0903896 0.100655 0)
(0.578542 0.325846 0)
(-0.2401 0.121826 0)
(-0.0808413 0.10925 0)
(-0.12159 0.0898867 0)
(-0.139031 0.0741042 0)
(-0.153102 0.0586677 0)
(-0.16387 0.0427768 0)
(-0.171472 0.0258206 0)
(-0.175686 0.00719417 0)
(-0.175751 -0.0135489 0)
(-0.171059 -0.0364956 0)
(-0.161489 -0.0614796 0)
(-0.147625 -0.0873855 0)
(-0.130658 -0.1103 0)
(-0.109716 -0.123198 0)
(-0.0822547 -0.124544 0)
(-0.0526624 -0.126384 0)
(-0.0335441 -0.123171 0)
(0.0161193 -0.0567915 0)
(0.0606578 -0.0929755 0)
(0.0683317 -0.0790731 0)
(0.0789656 -0.0586807 0)
(0.0914645 -0.0394191 0)
(0.102821 -0.0207467 0)
(0.115561 -0.0131012 0)
(0.126652 -0.00876439 0)
(0.132197 -0.00558101 0)
(0.133147 -0.00308771 0)
(0.130604 -0.000870169 0)
(0.125127 0.00129742 0)
(0.116586 0.00367939 0)
(0.104213 0.00673586 0)
(0.0849388 0.0111656 0)
(0.0710701 0.0368373 0)
(0.0597593 0.0604779 0)
(0.0759481 0.0830987 0)
(-0.118473 0.136617 0)
(0.705727 0.383686 0)
(-0.287677 0.157023 0)
(-0.0477015 0.133815 0)
(-0.0963062 0.106961 0)
(-0.107763 0.087642 0)
(-0.116806 0.0692188 0)
(-0.123606 0.0504846 0)
(-0.128275 0.0306098 0)
(-0.13064 0.00872631 0)
(-0.129835 -0.0158368 0)
(-0.125332 -0.0431043 0)
(-0.116705 -0.0727051 0)
(-0.103986 -0.102825 0)
(-0.087524 -0.129061 0)
(-0.0675843 -0.14575 0)
(-0.0442581 -0.152234 0)
(-0.0204097 -0.152355 0)
(0.000111423 -0.143717 0)
(0.0306395 -0.11497 0)
(0.0568121 -0.1093 0)
(0.0704 -0.0923349 0)
(0.0805494 -0.0711257 0)
(0.0906166 -0.0506484 0)
(0.100176 -0.0326083 0)
(0.109266 -0.0192747 0)
(0.116251 -0.00992959 0)
(0.119634 -0.00325425 0)
(0.119796 0.00198247 0)
(0.117359 0.00651315 0)
(0.112688 0.0108538 0)
(0.10581 0.0155183 0)
(0.0966494 0.0212094 0)
(0.0846953 0.0292237 0)
(0.0730904 0.0472452 0)
(0.0624859 0.0712525 0)
(0.0940023 0.0992089 0)
(0.0156478 0.137793 0)
(0.0949671 0.183031 0)
(0.141242 0.144963 0)
(-0.222018 0.202888 0)
(0.810444 0.43198 0)
(-0.33132 0.190694 0)
(-0.0173151 0.150289 0)
(-0.0733813 0.117572 0)
(-0.0786115 0.0955707 0)
(-0.0822443 0.0750042 0)
(-0.0845111 0.0543933 0)
(-0.0855605 0.0327539 0)
(-0.0853149 0.00887317 0)
(-0.0826463 -0.0184199 0)
(-0.0774789 -0.0490458 0)
(-0.0688491 -0.0825124 0)
(-0.056851 -0.116487 0)
(-0.0417941 -0.146258 0)
(-0.024797 -0.165945 0)
(-0.00641318 -0.174451 0)
(0.0119761 -0.172716 0)
(0.0278807 -0.160979 0)
(0.0460374 -0.139289 0)
(0.0624812 -0.122289 0)
(0.0731492 -0.102402 0)
(0.0808261 -0.0803124 0)
(0.0875775 -0.0589412 0)
(0.0937448 -0.0400572 0)
(0.099051 -0.0249005 0)
(0.102703 -0.0135718 0)
(0.10427 -0.00490963 0)
(0.103808 0.00225146 0)
(0.101632 0.00868889 0)
(0.0979896 0.014926 0)
(0.0930339 0.0214971 0)
(0.0869869 0.0290439 0)
(0.0800906 0.0384872 0)
(0.0742575 0.0529765 0)
(0.0688167 0.0730278 0)
(0.0906549 0.0987017 0)
(0.0719644 0.10715 0)
(0.0883792 0.0471148 0)
(0.146243 -0.0382359 0)
(-0.330698 0.107253 0)
(0.879939 0.474689 0)
(-0.368647 0.220977 0)
(0.00373411 0.155607 0)
(-0.0526737 0.121632 0)
(-0.0522252 0.0979235 0)
(-0.0510585 0.0758952 0)
(-0.0490699 0.0541102 0)
(-0.0465686 0.0315843 0)
(-0.0433984 0.00679996 0)
(-0.0374514 -0.0222946 0)
(-0.0303833 -0.0553789 0)
(-0.020601 -0.0919428 0)
(-0.00878777 -0.128869 0)
(0.00443417 -0.161183 0)
(0.0175232 -0.181828 0)
(0.0303282 -0.190165 0)
(0.0421444 -0.187184 0)
(0.0524458 -0.174375 0)
(0.0624049 -0.154011 0)
(0.0709679 -0.132332 0)
(0.0764791 -0.109277 0)
(0.0799239 -0.0857325 0)
(0.0825001 -0.0635179 0)
(0.0847062 -0.0439974 0)
(0.086498 -0.0279013 0)
(0.0875439 -0.0151313 0)
(0.0876305 -0.00490322 0)
(0.086613 0.00370717 0)
(0.0846923 0.0113865 0)
(0.0820153 0.0186664 0)
(0.0787564 0.0260608 0)
(0.0751867 0.0340914 0)
(0.0716853 0.0433404 0)
(0.0695791 0.0551262 0)
(0.0681433 0.0698335 0)
(0.0807243 0.0891005 0)
(0.0829344 0.0922434 0)
(0.0873885 0.0536704 0)
(0.181115 0.0229677 0)
(-0.284091 0.153907 0)
(0.928008 0.51714 0)
(-0.383183 0.234189 0)
(0.0169277 0.133041 0)
(-0.0273361 0.116733 0)
(-0.0265654 0.0950075 0)
(-0.0227739 0.0725177 0)
(-0.0176823 0.0501872 0)
(-0.0124273 0.027318 0)
(-0.0055083 0.00192303 0)
(0.00447191 -0.0307264 0)
(0.0141764 -0.065332 0)
(0.0254714 -0.103333 0)
(0.0371223 -0.140837 0)
(0.0478221 -0.172095 0)
(0.0569434 -0.192281 0)
(0.064458 -0.199766 0)
(0.0701921 -0.195345 0)
(0.0741472 -0.181143 0)
(0.076838 -0.160041 0)
(0.0781836 -0.136016 0)
(0.0778039 -0.110959 0)
(0.0762733 -0.0863817 0)
(0.0744184 -0.0637693 0)
(0.0727607 -0.0441344 0)
(0.0714376 -0.027866 0)
(0.0703191 -0.0146858 0)
(0.0692202 -0.0038942 0)
(0.0678541 0.0052914 0)
(0.066352 0.0134574 0)
(0.0646893 0.0211023 0)
(0.0629522 0.0286723 0)
(0.061327 0.0365524 0)
(0.0601002 0.0450828 0)
(0.0600887 0.0548062 0)
(0.0609975 0.0657677 0)
(0.0692081 0.0795646 0)
(0.0774402 0.0831728 0)
(0.0745652 0.0610389 0)
(0.239736 0.0487908 0)
(-0.557199 0.229318 0)
(1.01135 0.506807 0)
(-0.137351 0.296339 0)
(0.0410864 0.161543 0)
(0.0405704 0.122147 0)
(0.0130559 0.0920561 0)
(0.00863517 0.0654586 0)
(0.0140421 0.0414825 0)
(0.0206459 0.0170576 0)
(0.0324295 -0.0109685 0)
(0.0438759 -0.0421257 0)
(0.0557307 -0.0769097 0)
(0.0680032 -0.114644 0)
(0.0791519 -0.151098 0)
(0.0876774 -0.180547 0)
(0.0929269 -0.198563 0)
(0.0950029 -0.203724 0)
(0.0943091 -0.197071 0)
(0.0913923 -0.181019 0)
(0.086931 -0.158606 0)
(0.0813782 -0.133144 0)
(0.0750274 -0.107062 0)
(0.0684744 -0.0821886 0)
(0.0624368 -0.0598941 0)
(0.0574295 -0.0409185 0)
(0.0536429 -0.0253654 0)
(0.0509828 -0.0127498 0)
(0.0491933 -0.0022978 0)
(0.0478788 0.00668781 0)
(0.0470381 0.0147134 0)
(0.0464496 0.0222352 0)
(0.0460764 0.0296124 0)
(0.0459831 0.0371054 0)
(0.0463138 0.0448985 0)
(0.0474938 0.053212 0)
(0.0493647 0.061987 0)
(0.0547218 0.0720512 0)
(0.0611574 0.0740971 0)
(0.0476 0.0488627 0)
(0.293201 0.0699133 0)
(-0.794559 0.299287 0)
(0.779371 0.395731 0)
(0.000698103 0.31949 0)
(0.0933541 0.218916 0)
(0.110566 0.155192 0)
(0.0771263 0.106866 0)
(0.0597529 0.0676106 0)
(0.0581671 0.0358375 0)
(0.0623196 0.00648598 0)
(0.0737239 -0.0233778 0)
(0.085277 -0.055014 0)
(0.0974579 -0.0897561 0)
(0.109319 -0.126285 0)
(0.118703 -0.160072 0)
(0.12383 -0.185781 0)
(0.124092 -0.199844 0)
(0.119907 -0.201427 0)
(0.11222 -0.191894 0)
(0.102104 -0.173789 0)
(0.0906012 -0.150136 0)
(0.0785529 -0.123962 0)
(0.0666484 -0.097798 0)
(0.055613 -0.0735644 0)
(0.0461661 -0.0525283 0)
(0.0387714 -0.0351501 0)
(0.0335311 -0.0212447 0)
(0.0302228 -0.0100531 0)
(0.0284021 -0.000667895 0)
(0.0276125 0.00754043 0)
(0.0276051 0.0150222 0)
(0.0280526 0.0221622 0)
(0.0288352 0.0292098 0)
(0.0299144 0.0363185 0)
(0.0312906 0.043588 0)
(0.033058 0.0511474 0)
(0.0347912 0.0591198 0)
(0.0365979 0.0685839 0)
(0.0271237 0.0759807 0)
(0.0154274 0.092185 0)
(0.106218 0.161398 0)
(-0.666212 0.287941 0)
(0.617302 0.220889 0)
(0.00455663 0.298127 0)
(0.113009 0.241542 0)
(0.148278 0.177557 0)
(0.130838 0.123528 0)
(0.117812 0.0778759 0)
(0.11494 0.0389494 0)
(0.11709 0.00346387 0)
(0.123431 -0.0306536 0)
(0.131636 -0.0649658 0)
(0.141309 -0.100494 0)
(0.150184 -0.1354 0)
(0.155323 -0.165296 0)
(0.154795 -0.185842 0)
(0.148278 -0.194731 0)
(0.136664 -0.191988 0)
(0.121421 -0.17936 0)
(0.104053 -0.159418 0)
(0.0859328 -0.135064 0)
(0.0681678 -0.109078 0)
(0.0517024 -0.0839278 0)
(0.0373939 -0.061478 0)
(0.025977 -0.0428456 0)
(0.0177202 -0.0281013 0)
(0.0124209 -0.0166946 0)
(0.00946829 -0.00750735 0)
(0.00814535 0.000416334 0)
(0.00814041 0.00759569 0)
(0.00889704 0.0143991 0)
(0.0101804 0.0210848 0)
(0.0118489 0.0277944 0)
(0.013798 0.034611 0)
(0.0159253 0.0416034 0)
(0.0181872 0.0489221 0)
(0.0204504 0.0570303 0)
(0.0224932 0.0682893 0)
(0.00828128 0.0880218 0)
(-0.0075428 0.125381 0)
(0.193909 0.175212 0)
(-0.56833 0.216146 0)
(0.570772 0.118557 0)
(-0.0203684 0.258638 0)
(0.113724 0.229877 0)
(0.165071 0.176057 0)
(0.166733 0.126206 0)
(0.164387 0.0811505 0)
(0.165357 0.0400487 0)
(0.168237 0.00171831 0)
(0.172177 -0.0353048 0)
(0.177728 -0.0718481 0)
(0.183883 -0.107554 0)
(0.187567 -0.139646 0)
(0.185765 -0.164238 0)
(0.177093 -0.178508 0)
(0.161994 -0.181658 0)
(0.142007 -0.174584 0)
(0.119074 -0.159327 0)
(0.0949547 -0.138321 0)
(0.0712511 -0.114279 0)
(0.0491913 -0.0896794 0)
(0.0299401 -0.066895 0)
(0.0144554 -0.0476489 0)
(0.00333009 -0.0327369 0)
(-0.00386259 -0.0213892 0)
(-0.00780219 -0.0129307 0)
(-0.00979311 -0.00578219 0)
(-0.0104291 0.000720455 0)
(-0.00994626 0.00691013 0)
(-0.00873012 0.0130285 0)
(-0.00692035 0.019221 0)
(-0.00466349 0.0255802 0)
(-0.00212669 0.0321787 0)
(0.000486255 0.0391203 0)
(0.00303047 0.0465142 0)
(0.00567457 0.054919 0)
(0.00651117 0.0694781 0)
(-0.0117383 0.0995269 0)
(-0.023335 0.130084 0)
(0.205764 0.178516 0)
(-0.528555 0.207516 0)
(0.628353 0.0538312 0)
(0.00914643 0.197321 0)
(0.113847 0.196929 0)
(0.175172 0.157927 0)
(0.191429 0.117716 0)
(0.198078 0.0773383 0)
(0.203388 0.0373718 0)
(0.208559 -0.00139034 0)
(0.213023 -0.0395459 0)
(0.217304 -0.0764422 0)
(0.219103 -0.109906 0)
(0.215257 -0.136765 0)
(0.20387 -0.154401 0)
(0.185028 -0.161815 0)
(0.160347 -0.159569 0)
(0.131998 -0.149074 0)
(0.102247 -0.132419 0)
(0.072818 -0.11169 0)
(0.04551 -0.0894067 0)
(0.0215031 -0.0677267 0)
(0.00235537 -0.0489627 0)
(-0.0111459 -0.0345906 0)
(-0.0191494 -0.0246821 0)
(-0.0238322 -0.0170751 0)
(-0.0263945 -0.0107099 0)
(-0.0276443 -0.0049303 0)
(-0.027864 0.000537736 0)
(-0.0271717 0.00589544 0)
(-0.0257153 0.0113296 0)
(-0.0235868 0.0169837 0)
(-0.0209521 0.0229899 0)
(-0.0180759 0.0294896 0)
(-0.0153957 0.0366785 0)
(-0.0134125 0.0449044 0)
(-0.0126631 0.0558147 0)
(-0.0190494 0.0778724 0)
(-0.0434173 0.11271 0)
(-0.039614 0.138331 0)
(0.0695901 0.181137 0)
(-0.531873 0.203928 0)
(0.473054 0.0748465 0)
(-0.132155 0.137551 0)
(0.0942986 0.133237 0)
(0.172804 0.11677 0)
(0.203917 0.0953628 0)
(0.218192 0.0644689 0)
(0.228143 0.0285103 0)
(0.237167 -0.00880884 0)
(0.243509 -0.0451648 0)
(0.24499 -0.0781469 0)
(0.238989 -0.105069 0)
(0.224137 -0.123851 0)
(0.200946 -0.133622 0)
(0.171327 -0.134833 0)
(0.137875 -0.128752 0)
(0.102905 -0.116664 0)
(0.0687865 -0.100456 0)
(0.0367319 -0.0817387 0)
(0.00919541 -0.0630229 0)
(-0.0131906 -0.046137 0)
(-0.0271222 -0.0345713 0)
(-0.035643 -0.026321 0)
(-0.0405643 -0.0199407 0)
(-0.0434823 -0.0143743 0)
(-0.0451554 -0.00927523 0)
(-0.0459344 -0.00446677 0)
(-0.0458823 0.000145151 0)
(-0.0450458 0.00470194 0)
(-0.0434009 0.00939516 0)
(-0.0409973 0.0144456 0)
(-0.0380072 0.0200932 0)
(-0.0347613 0.0266314 0)
(-0.0319013 0.0345189 0)
(-0.0303393 0.0447325 0)
(-0.0305631 0.0603133 0)
(-0.0371066 0.0892085 0)
(-0.0602483 0.132599 0)
(-0.055984 0.165937 0)
(-0.0424863 0.168857 0)
(-0.562775 0.115773 0)
(0.724219 0.134509 0)
(0.0818433 0.115275 0)
(0.149801 0.0991534 0)
(0.222478 0.0804215 0)
(0.244152 0.0699306 0)
(0.248938 0.0477616 0)
(0.255194 0.0177189 0)
(0.261275 -0.0145029 0)
(0.260277 -0.0445337 0)
(0.249767 -0.0694121 0)
(0.229485 -0.0874013 0)
(0.200988 -0.0980123 0)
(0.166643 -0.101536 0)
(0.129007 -0.098993 0)
(0.0906312 -0.0916821 0)
(0.0530045 -0.0803033 0)
(0.0189894 -0.0665614 0)
(-0.0118483 -0.0515884 0)
(-0.0333657 -0.0400016 0)
(-0.0475188 -0.0317529 0)
(-0.0558765 -0.0260644 0)
(-0.0608586 -0.0213671 0)
(-0.0639003 -0.016972 0)
(-0.0658207 -0.0126148 0)
(-0.0669545 -0.00836557 0)
(-0.0674064 -0.00431163 0)
(-0.0671536 -0.000457359 0)
(-0.0661473 0.00331209 0)
(-0.0643568 0.00721048 0)
(-0.0617179 0.0115542 0)
(-0.058343 0.0167152 0)
(-0.0544625 0.0231694 0)
(-0.0505627 0.0316602 0)
(-0.0472613 0.0436039 0)
(-0.0435992 0.062038 0)
(-0.0383698 0.0929174 0)
(-0.0419705 0.140984 0)
(-0.0315447 0.193944 0)
(0.0901055 0.186795 0)
(-0.516089 0.0263654 0)
(0.191945 0.0879103 0)
(0.225786 0.0996659 0)
(0.246576 0.07015 0)
(0.242635 0.0399845 0)
(0.239791 0.0124147 0)
(0.234829 -0.0125699 0)
(0.220144 -0.0330686 0)
(0.196429 -0.0482397 0)
(0.165984 -0.0580416 0)
(0.131247 -0.0629328 0)
(0.0940143 -0.0632155 0)
(0.0563107 -0.0596882 0)
(0.0201916 -0.0533134 0)
(-0.0149493 -0.0443499 0)
(-0.0416495 -0.0362035 0)
(-0.061345 -0.0298538 0)
(-0.0740788 -0.0259514 0)
(-0.0819491 -0.0232405 0)
(-0.0868258 -0.020799 0)
(-0.0900975 -0.0179387 0)
(-0.0924111 -0.0146375 0)
(-0.0940382 -0.0111054 0)
(-0.0950715 -0.00759462 0)
(-0.0955273 -0.00426906 0)
(-0.095375 -0.00115821 0)
(-0.0945261 0.00184782 0)
(-0.0929709 0.00493692 0)
(-0.0905124 0.00845172 0)
(-0.0870513 0.0128509 0)
(-0.0824417 0.0186954 0)
(-0.0765883 0.0267677 0)
(-0.0693515 0.0383574 0)
(-0.0592153 0.0557586 0)
(-0.0425742 0.082621 0)
(-0.023514 0.123024 0)
(-0.00723909 0.178726 0)
(0.160327 0.174913 0)
(-0.391192 0.0777921 0)
(0.451076 0.20952 0)
(0.206116 0.178607 0)
(0.152579 0.118724 0)
(0.139581 0.0640855 0)
(0.128343 0.026029 0)
(0.114331 0.00198226 0)
(0.0990529 -0.0127011 0)
(0.0779377 -0.0217302 0)
(0.0529964 -0.0271851 0)
(0.0254048 -0.0294825 0)
(-0.00512216 -0.028562 0)
(-0.0347264 -0.0256164 0)
(-0.0608474 -0.0222268 0)
(-0.0822489 -0.0197493 0)
(-0.0974411 -0.019162 0)
(-0.107424 -0.0195631 0)
(-0.113735 -0.0201009 0)
(-0.118119 -0.019689 0)
(-0.121586 -0.0180366 0)
(-0.124551 -0.0152869 0)
(-0.127086 -0.011818 0)
(-0.129147 -0.00806836 0)
(-0.13067 -0.00445676 0)
(-0.131624 -0.00130473 0)
(-0.13201 0.00123158 0)
(-0.131802 0.00319395 0)
(-0.130902 0.00494466 0)
(-0.129049 0.00687937 0)
(-0.125852 0.00938753 0)
(-0.120759 0.0129289 0)
(-0.113143 0.0181875 0)
(-0.102269 0.0262551 0)
(-0.0865384 0.0387293 0)
(-0.0627902 0.0576605 0)
(-0.0303862 0.0856209 0)
(0.00147229 0.1297 0)
(0.18357 0.141172 0)
(-0.363178 0.13478 0)
(0.359003 -0.416268 0)
(-0.345825 -0.512285 0)
(-0.218127 -0.0275189 0)
(-0.0932222 0.110883 0)
(-0.0537519 0.0925785 0)
(-0.0313289 0.0546789 0)
(-0.0264302 0.0286056 0)
(-0.0313883 0.011976 0)
(-0.040327 0.00133249 0)
(-0.0510607 -0.00548693 0)
(-0.0650425 -0.00949544 0)
(-0.080902 -0.0115747 0)
(-0.0974499 -0.0130468 0)
(-0.113165 -0.0153292 0)
(-0.126831 -0.0184699 0)
(-0.137234 -0.0216703 0)
(-0.143758 -0.0246224 0)
(-0.147687 -0.0267144 0)
(-0.150629 -0.0278661 0)
(-0.153569 -0.028135 0)
(-0.156771 -0.027679 0)
(-0.160157 -0.026677 0)
(-0.163548 -0.0252978 0)
(-0.166753 -0.0236395 0)
(-0.169564 -0.0216931 0)
(-0.171743 -0.0193747 0)
(-0.173069 -0.0166336 0)
(-0.173424 -0.0135374 0)
(-0.172887 -0.0105168 0)
(-0.171485 -0.0075152 0)
(-0.168899 -0.0043645 0)
(-0.164503 -0.000795194 0)
(-0.157365 0.00373918 0)
(-0.146269 0.0101417 0)
(-0.129243 0.0192894 0)
(-0.102842 0.0314174 0)
(-0.0638965 0.0472714 0)
(-0.0177195 0.0745978 0)
(0.195715 0.117071 0)
(-0.453626 0.201505 0)
(0.122479 -0.185999 0)
(-0.388314 -0.297882 0)
(-0.343286 -0.0964631 0)
(-0.26502 0.0513878 0)
(-0.21133 0.0833385 0)
(-0.179184 0.0744411 0)
(-0.162877 0.0610633 0)
(-0.156824 0.0512557 0)
(-0.156823 0.0462874 0)
(-0.16004 0.0459075 0)
(-0.164586 0.0492365 0)
(-0.168907 0.0550269 0)
(-0.172132 0.0618687 0)
(-0.174078 0.0678563 0)
(-0.17515 0.0703679 0)
(-0.176192 0.0665568 0)
(-0.177987 0.0602555 0)
(-0.18087 0.0551118 0)
(-0.184725 0.0524167 0)
(-0.189164 0.0519988 0)
(-0.193711 0.0532464 0)
(-0.197938 0.0555037 0)
(-0.201538 0.0581053 0)
(-0.204357 0.0603526 0)
(-0.20636 0.0615649 0)
(-0.207566 0.0612501 0)
(-0.207949 0.0593473 0)
(-0.207406 0.0563294 0)
(-0.206044 0.0530177 0)
(-0.203903 0.0493688 0)
(-0.200784 0.0451701 0)
(-0.19618 0.0400863 0)
(-0.189321 0.0338043 0)
(-0.179499 0.0260579 0)
(-0.166176 0.0157396 0)
(-0.147616 -0.000143545 0)
(-0.117867 -0.0218023 0)
(-0.0632724 -0.0305429 0)
(0.202032 0.0552412 0)
(-0.553046 0.251673 0)
(1.14883 -0.0108734 0)
(-0.29725 -0.322896 0)
(-0.353198 -0.232473 0)
(-0.352927 -0.148186 0)
(-0.329312 -0.107 0)
(-0.297803 -0.0984684 0)
(-0.270609 -0.100594 0)
(-0.250742 -0.10608 0)
(-0.237125 -0.113275 0)
(-0.227599 -0.122138 0)
(-0.220281 -0.133152 0)
(-0.214026 -0.146738 0)
(-0.208496 -0.162451 0)
(-0.204026 -0.178292 0)
(-0.201527 -0.190549 0)
(-0.202283 -0.195421 0)
(-0.207049 -0.194995 0)
(-0.214859 -0.191407 0)
(-0.224074 -0.186284 0)
(-0.233253 -0.180814 0)
(-0.241423 -0.175683 0)
(-0.248013 -0.171144 0)
(-0.252744 -0.167121 0)
(-0.255583 -0.163345 0)
(-0.256741 -0.159481 0)
(-0.256662 -0.155241 0)
(-0.255899 -0.150481 0)
(-0.254884 -0.145219 0)
(-0.253794 -0.139539 0)
(-0.252739 -0.133519 0)
(-0.251984 -0.12732 0)
(-0.251901 -0.120961 0)
(-0.253172 -0.114072 0)
(-0.257423 -0.10554 0)
(-0.267042 -0.0932286 0)
(-0.281098 -0.0736787 0)
(-0.288404 -0.0405046 0)
(-0.27595 0.0172511 0)
(-0.284276 0.105404 0)
(-0.660881 0.217523 0)
)
;

boundaryField
{
    floor
    {
        type            noSlip;
    }
    ceiling
    {
        type            noSlip;
    }
    sWall
    {
        type            noSlip;
    }
    nWall
    {
        type            noSlip;
    }
    sideWalls
    {
        type            empty;
    }
    glass1
    {
        type            noSlip;
    }
    glass2
    {
        type            noSlip;
    }
    sun
    {
        type            noSlip;
    }
    Table_master
    {
        type            noSlip;
    }
    Table_slave
    {
        type            noSlip;
    }
    inlet
    {
        type            fixedValue;
        value           uniform (0.5 0 0);
    }
    outlet
    {
        type            zeroGradient;
    }
}


// ************************************************************************* //
