/*--------------------------------*- C++ -*----------------------------------*\
  =========                 |
  \\      /  F ield         | OpenFOAM: The Open Source CFD Toolbox
   \\    /   O peration     | Website:  https://openfoam.org
    \\  /    A nd           | Version:  6
     \\/     M anipulation  |
\*---------------------------------------------------------------------------*/
FoamFile
{
    version     2.0;
    format      ascii;
    class       surfaceScalarField;
    location    "1610";
    object      phi;
}
// * * * * * * * * * * * * * * * * * * * * * * * * * * * * * * * * * * * * * //

dimensions      [1 0 -1 0 0 0 0];

internalField   nonuniform List<scalar> 
850
(
-0.00305314
0.00311359
-0.00414586
0.00109273
-0.00501498
0.000869121
-0.00570386
0.000688872
-0.00617595
0.000472089
-0.0063972
0.000221251
-0.00632799
-6.92096e-05
-0.00592417
-0.000403819
-0.00517393
-0.000750238
-0.00412879
-0.00104514
-0.00290051
-0.00122828
-0.00164172
-0.00125878
-0.000539216
-0.00110251
0.000135791
-0.000675008
0.000138142
-0.000922193
0.00092585
-0.000689489
-0.000232704
-5.98726e-05
-0.000629617
0.000543736
-0.000603609
0.00100297
-0.000459232
0.00125951
-0.000256547
0.00136759
-0.000108078
0.00142037
-5.27818e-05
0.0014507
-3.03211e-05
0.00146572
-1.50276e-05
0.0014693
-3.57324e-06
0.00146226
7.03305e-06
0.00143896
2.33012e-05
0.00138037
5.85954e-05
0.00125433
0.000126035
0.00105057
0.000203759
0.000793662
0.000256912
0.000798501
-0.00220748
0.00548448
-0.00329515
0.0021804
-0.00420838
0.00178235
-0.00490616
0.00138665
-0.00538767
0.000953601
-0.0056306
0.000464189
-0.00559457
-0.000105241
-0.00524037
-0.00075802
-0.00456687
-0.00142374
-0.00364284
-0.00196917
-0.00258817
-0.00228294
-0.00154166
-0.0023053
-0.000628832
-0.00201533
9.27535e-05
-0.00139659
0.000872533
-0.000641637
0.00114842
-0.000272107
0.000956722
0.000196061
0.000969411
4.19986e-05
0.000894851
0.000422305
-0.000613011
0.000787038
-0.000994349
0.00110007
-0.000916639
0.00135104
-0.000710203
0.00140754
-0.00031305
0.00141567
-0.000116208
0.00142639
-6.34958e-05
0.00143537
-3.93012e-05
0.00144063
-2.02886e-05
0.00144279
-5.73276e-06
0.00144238
7.43586e-06
0.00143689
2.87922e-05
0.00140041
9.50755e-05
0.00124746
0.000278984
0.000978882
0.00047234
0.000644772
0.000591022
0.00145565
-0.00156235
0.00729725
-0.00251038
0.00312843
-0.00334301
0.00261498
-0.00396557
0.00200921
-0.00441314
0.00140117
-0.00466165
0.000712703
-0.00465598
-0.000110913
-0.00433468
-0.00107932
-0.00371314
-0.00204528
-0.00288873
-0.00279358
-0.00198664
-0.00318503
-0.00112273
-0.00316921
-0.000373556
-0.00276451
0.000240385
-0.00201053
0.000751818
-0.00115307
0.000899127
-0.000419416
0.000707256
0.000387932
0.00168793
0.00143696
-0.000528268
0.00163231
-0.000808368
0.00157466
-0.0009367
0.00160799
-0.000949969
0.00181153
-0.000913738
0.00149863
0.00138258
0.00131924
0.00128009
0.00125996
0.00125438
0.00126197
0.00129091
0.00138614
0.0011591
0.00050603
0.000870172
0.000761265
0.000498994
0.0009622
0.00197322
-0.00109549
0.00871739
-0.00185228
0.00388522
-0.00243658
0.00319929
-0.00288264
0.00245527
-0.00322775
0.00174627
-0.0034406
0.000925549
-0.00344199
-0.000109522
-0.00312354
-0.00139777
-0.00254767
-0.00262115
-0.00184597
-0.00349528
-0.00113034
-0.00390066
-0.000480656
-0.0038189
6.57774e-05
-0.00331094
0.00052629
-0.00247105
0.00090227
-0.00152905
0.0011192
-0.00063635
0.0013032
0.000203935
0.00225658
0.000734546
0.00216671
0.000101811
0.00199361
-0.000355164
0.00190758
-0.00072234
0.00179678
-0.000825899
0.00166456
-0.000817749
0.00143344
-0.000682622
0.00175721
-0.000323921
0.00193503
-0.00017797
0.00206614
-0.000131267
0.00216713
-0.000101147
0.00222758
-6.05955e-05
0.00222521
2.21299e-06
0.00213245
9.26078e-05
0.00191296
0.000219331
0.00150682
0.000405991
0.00126953
0.000743323
0.000902357
0.00112843
0.000384161
0.0014804
0.00238102
-0.000756052
0.00986116
-0.00132704
0.00445621
-0.00150959
0.00338184
-0.00168815
0.00263383
-0.00185309
0.00191121
-0.00196207
0.00103454
-0.00191359
-0.000158009
-0.00155649
-0.00175487
-0.00105547
-0.00312217
-0.00053758
-0.00401317
-7.31184e-05
-0.00436512
0.0003055
-0.00419752
0.000596624
-0.00360207
0.000849418
-0.00272384
0.00106861
-0.00174824
0.00127579
-0.000843532
0.00158617
-0.000106443
0.00202938
0.000291335
0.00206303
6.81653e-05
0.00199549
-0.000287623
0.00181085
-0.000537701
0.00162291
-0.000637961
0.00144578
-0.000640622
0.00131709
-0.000553933
0.00137598
-0.000382807
0.00146423
-0.000266222
0.00154892
-0.000215957
0.00163064
-0.000182863
0.00170099
-0.000130946
0.00174021
-3.70118e-05
0.0017243
0.000108519
0.00163812
0.000305511
0.00148591
0.000558204
0.00132985
0.000899382
0.00115091
0.00130737
0.000803952
0.00182736
0.00101978
0.00216519
-0.00109537
0.00213626
-0.00179356
0.00071781
-0.00172079
-0.000638753
0.0109407
-0.00101438
0.00483184
-0.000633396
0.00300085
-0.000448599
0.00244903
-0.00038391
0.00184652
-0.000303477
0.000954103
-5.16012e-05
-0.000409885
0.000334849
-0.00214132
0.000692542
-0.00347986
0.000952373
-0.004273
0.00109536
-0.00450811
0.00114566
-0.00424782
0.00113952
-0.00359593
0.00111626
-0.00270057
0.00110062
-0.00173261
0.00113251
-0.000875421
0.00126922
-0.000243155
0.00148362
7.6939e-05
0.00153462
1.71594e-05
0.00143648
-0.000189475
0.00126199
-0.000363209
0.00108227
-0.000458242
0.000924949
-0.000483304
0.000819959
-0.000448942
0.000809288
-0.000372136
0.000858819
-0.000315753
0.000935191
-0.00029233
0.00102614
-0.000273808
0.00112515
-0.000229961
0.00122233
-0.000134191
0.00129538
3.54664e-05
0.00133251
0.000268388
0.00134782
0.000542892
0.00138184
0.000865366
0.00148232
0.00120688
0.00168585
0.00162383
0.00203672
0.00181432
0.0023369
0.00183609
0.00182993
0.00122478
0.000174571
-0.000763862
0.0121918
-0.000621474
0.00468945
0.000492322
0.00188705
0.000960741
0.00198061
0.0012182
0.00158907
0.00159983
0.000572473
0.00210323
-0.000913288
0.00244041
-0.0024785
0.00257423
-0.00361369
0.00250667
-0.00420544
0.00227342
-0.00427486
0.00193644
-0.00391084
0.00155949
-0.00321897
0.00120067
-0.00234176
0.000896756
-0.00142869
0.000704881
-0.000683545
0.000652906
-0.000191181
0.000703722
2.61233e-05
0.000711599
9.28226e-06
0.000635241
-0.000113117
0.000507856
-0.000235825
0.000367534
-0.00031792
0.000241637
-0.000357406
0.000155574
-0.00036288
0.000132732
-0.000349293
0.000161888
-0.000344909
0.000221665
-0.000352107
0.000302244
-0.000354386
0.000404618
-0.000332335
0.000533764
-0.000263337
0.000686764
-0.000117534
0.000844805
0.000110347
0.00100685
0.000380849
0.0012087
0.00066351
0.00148334
0.000932251
0.00188379
0.00122338
0.00241733
0.00128077
0.00318505
0.00106837
0.00336171
0.00104812
0.0036051
0.00273597
0.00999922
0.00339173
0.00403369
0.00344943
0.00182935
0.00353522
0.00189483
0.00374662
0.00137766
0.0042227
9.64012e-05
0.00469393
-0.00138453
0.00478898
-0.00257354
0.00451464
-0.00333935
0.00396145
-0.00365225
0.00323024
-0.00354366
0.00242524
-0.00310583
0.00162839
-0.00242213
0.000922412
-0.00163578
0.000347468
-0.000853748
-2.79339e-06
-0.000333284
-0.0001414
-5.25737e-05
-0.000156023
4.07457e-05
-0.00016396
1.7219e-05
-0.000216103
-6.09737e-05
-0.000306932
-0.000144995
-0.000413148
-0.000211705
-0.000512441
-0.000258113
-0.00058666
-0.000288661
-0.000624574
-0.000311379
-0.000633714
-0.000335769
-0.000625825
-0.000359996
-0.000605232
-0.00037498
-0.000566951
-0.000370616
-0.000494753
-0.000335535
-0.000357336
-0.000254952
-0.000147154
-9.98347e-05
0.00010372
0.000129976
0.000388486
0.000378744
0.000706995
0.000613743
0.00108936
0.000841008
0.0015068
0.000863341
0.0018986
0.000676572
0.00120597
0.00174074
0.00509748
0.0105981
0.0146276
0.0125616
0.00389538
0.0112296
0.00322682
0.0103414
0.00226594
0.00953459
0.000903159
0.00853216
-0.000382086
0.0073532
-0.00139459
0.00607985
-0.002066
0.00476092
-0.00233331
0.00342964
-0.00221238
0.00216457
-0.00184077
0.00100971
-0.00126726
5.6495e-05
-0.000682564
-0.000566255
-0.000230998
-0.000860084
-3.94548e-05
-0.000957235
4.45782e-05
-0.000976754
6.02638e-05
-0.000992038
3.25037e-05
-0.00103544
-1.75718e-05
-0.00110804
-7.23961e-05
-0.00119705
-0.000122698
-0.00128882
-0.000166339
-0.0013744
-0.000203077
-0.00145154
-0.000234246
-0.00152707
-0.00026024
-0.00161024
-0.000276828
-0.0017096
-0.000275611
-0.00183481
-0.000245414
-0.00199872
-0.000171624
-0.00221674
-3.69242e-05
-0.00248329
0.000166713
-0.00280726
0.000453949
-0.00327115
0.000842625
-0.00398828
0.00133087
-0.00502978
0.00188251
-0.00651698
0.00235054
-0.00825545
0.00241504
-0.00777186
0.00125715
-0.00235737
0.00895054
0.00560324
0.00747199
0.00470536
0.00708013
0.00265781
0.00672933
0.00125396
0.00611934
0.000227899
0.00524689
-0.000522134
0.00417822
-0.000997335
0.00298268
-0.00113778
0.00169106
-0.000920752
0.000430196
-0.000579906
-0.000609774
-0.000227292
-0.00127117
-2.11631e-05
-0.00156362
6.14464e-05
-0.00167798
7.49023e-05
-0.00170763
7.42315e-05
-0.00171313
6.57668e-05
-0.00172799
4.73609e-05
-0.00176678
2.12225e-05
-0.00183076
-8.42494e-06
-0.00191228
-4.11757e-05
-0.00200366
-7.49543e-05
-0.00210282
-0.000103918
-0.0022112
-0.000125871
-0.00233225
-0.000139184
-0.00246814
-0.000140946
-0.00261763
-0.000126114
-0.00277529
-8.77604e-05
-0.00292874
-1.81683e-05
-0.00306244
9.67774e-05
-0.00317481
0.000279078
-0.00327578
0.000554917
-0.00337727
0.000944121
-0.00348606
0.00143967
-0.00356953
0.00196598
-0.00356784
0.00234885
-0.00330978
0.00215699
-0.00194982
-0.000102808
-0.00422387
-0.000826131
0.00648268
0.000741911
0.00313732
0.00140744
0.00199228
0.00164618
0.00101522
0.00158223
0.00029185
0.00121114
-0.000151043
0.000528854
-0.000315051
-0.000364511
-0.000244412
-0.00124163
-4.36336e-05
-0.00188678
6.5245e-05
-0.00222738
0.000113307
-0.00235808
0.000109539
-0.00238071
8.40734e-05
-0.00237005
6.42461e-05
-0.00234863
5.28079e-05
-0.00232779
4.49285e-05
-0.0023167
3.62727e-05
-0.00232068
2.52027e-05
-0.00234011
1.10062e-05
-0.0023739
-7.3937e-06
-0.00242236
-2.6489e-05
-0.00248361
-4.26664e-05
-0.0025557
-5.3788e-05
-0.00263606
-5.88192e-05
-0.00272059
-5.642e-05
-0.00280259
-4.41122e-05
-0.00287258
-1.7767e-05
-0.00291801
2.7265e-05
-0.00291816
9.69204e-05
-0.00284771
0.00020863
-0.00267214
0.000379347
-0.00236012
0.000632102
-0.00190383
0.000983373
-0.00128925
0.0013514
-0.000299554
0.00135915
0.0011477
0.00070973
0.00164258
-0.000597685
-0.00248961
-0.0120484
-0.015577
-0.00905381
-0.00588908
-0.00387453
-0.00284071
-0.00253383
-0.00267287
-0.00297799
-0.00321391
-0.00324987
-0.00317734
-0.0030569
-0.00294025
-0.00284905
-0.00277767
-0.00271769
-0.00266555
-0.00262202
-0.00258953
-0.00257124
-0.00257138
-0.00259069
-0.00262629
-0.00267313
-0.00272514
-0.00277491
-0.00281254
-0.00282403
-0.00279068
-0.0026879
-0.00247365
-0.00208892
-0.00145171
-0.00046353
0.000892295
0.00225559
0.00296937
0.00237586
)
;

boundaryField
{
    floor
    {
        type            calculated;
        value           nonuniform List<scalar> 
36
(
0
0
0
0
0
0
0
0
0
0
0
0
0
0
0
0
0
0
0
-4.83913e-06
-1.23785e-05
-1.85699e-05
-2.36401e-05
-2.11164e-05
-1.96192e-05
-1.84536e-05
-2.35095e-06
-3.78391e-06
-4.35934e-06
-5.04463e-06
-3.65659e-06
-7.64372e-06
-1.10003e-05
-1.12616e-05
-1.38373e-05
-1.19388e-05
)
;
    }
    ceiling
    {
        type            calculated;
        value           nonuniform List<scalar> 
43
(
-4.18414e-05
-4.11764e-05
-4.04765e-05
-2.74118e-05
-2.22667e-05
-1.86017e-05
-1.50272e-05
-1.20024e-05
-9.92692e-06
-8.49989e-06
-7.66519e-06
-7.28596e-06
-7.13844e-06
-7.11091e-06
-7.1223e-06
-7.13994e-06
-7.16681e-06
-7.20859e-06
-7.25872e-06
-7.29022e-06
-7.28821e-06
-7.25085e-06
-7.17286e-06
-7.07154e-06
-6.95221e-06
-6.80966e-06
-6.64891e-06
-6.47546e-06
-6.2841e-06
-6.07907e-06
-5.85938e-06
-5.62548e-06
-5.37671e-06
-5.10612e-06
-4.81157e-06
-4.42499e-06
-4.13959e-06
-4.04935e-06
-4.18153e-06
-3.60388e-06
6.94078e-06
4.17898e-06
-5.33152e-05
)
;
    }
    sWall
    {
        type            calculated;
        value           uniform -0.000241394;
    }
    nWall
    {
        type            calculated;
        value           nonuniform List<scalar> 6(-5.43172e-05 -6.5434e-05 -6.88134e-05 -8.33262e-05 -9.16832e-05 -0.000110142);
    }
    sideWalls
    {
        type            empty;
        value           nonuniform 0();
    }
    glass1
    {
        type            calculated;
        value           nonuniform List<scalar> 9(-6.0458e-05 -0.000163402 -0.000250424 -0.00032465 -0.000387723 -0.000440785 -0.000487285 -0.000543339 -0.000605862);
    }
    glass2
    {
        type            calculated;
        value           nonuniform List<scalar> 2(-0.00028641 -0.00031701);
    }
    sun
    {
        type            calculated;
        value           uniform 0;
    }
    Table_master
    {
        type            calculated;
        value           nonuniform List<scalar> 9(-1.5364e-07 -1.53789e-07 -1.53839e-07 -1.53869e-07 -1.53889e-07 -1.53902e-07 -1.53906e-07 -1.539e-07 -1.5387e-07);
    }
    Table_slave
    {
        type            calculated;
        value           nonuniform List<scalar> 9(1.5353e-07 1.53516e-07 1.53468e-07 1.53431e-07 1.53408e-07 1.53409e-07 1.53414e-07 1.53451e-07 1.53535e-07);
    }
    inlet
    {
        type            calculated;
        value           uniform -0.0106584;
    }
    outlet
    {
        type            calculated;
        value           nonuniform List<scalar> 2(0.0123316 0.00356975);
    }
}


// ************************************************************************* //
