/*--------------------------------*- C++ -*----------------------------------*\
  =========                 |
  \\      /  F ield         | OpenFOAM: The Open Source CFD Toolbox
   \\    /   O peration     | Website:  https://openfoam.org
    \\  /    A nd           | Version:  6
     \\/     M anipulation  |
\*---------------------------------------------------------------------------*/
FoamFile
{
    version     2.0;
    format      ascii;
    class       volScalarField;
    location    "15300";
    object      alphat;
}
// * * * * * * * * * * * * * * * * * * * * * * * * * * * * * * * * * * * * * //

dimensions      [1 -1 -1 0 0 0 0];

internalField   nonuniform List<scalar> 
778
(
0.00104101
0.00111059
0.00110659
0.00115463
0.00119864
0.00123861
0.00127581
0.00131168
0.00134778
0.00138615
0.00142275
0.00145752
0.00149179
0.00152866
0.00156715
0.000736669
0.00105566
0.00106414
0.00103832
0.00099518
0.000937565
0.000880196
0.000827386
0.000779787
0.000737099
0.000699044
0.000664855
0.000633705
0.000604629
0.000576335
0.000546752
0.000522184
0.000472638
0.0015247
0.00300744
0.0026394
0.00304653
0.00334199
0.00365518
0.00396755
0.00425535
0.00448697
0.00462176
0.00470104
0.00466847
0.00443586
0.00385935
0.00281886
0.00171606
0.00163618
0.00156626
0.00131907
0.00224676
0.00311415
0.00362628
0.00365005
0.00288031
0.00246339
0.00217425
0.00195477
0.00178028
0.0016316
0.00150014
0.00137778
0.00125805
0.0011506
0.00105794
0.00119165
0.000599328
0.00193419
0.00419902
0.00311346
0.00445339
0.00497618
0.00541851
0.00582011
0.00617343
0.00647265
0.0067072
0.0069346
0.00717413
0.00739465
0.00752663
0.00744132
0.00681504
0.00498538
0.00192147
0.00166365
0.00355861
0.00496703
0.00563384
0.0051246
0.00135214
0.00117571
0.00103953
0.000932982
0.000848208
0.000779809
0.000724042
0.000678694
0.000643337
0.000707196
0.000831891
0.00131737
0.000681948
0.00232916
0.00565877
0.00297915
0.00500686
0.0057807
0.00619458
0.00649874
0.00672356
0.00689119
0.00702697
0.00722036
0.00754757
0.00802554
0.00862724
0.00923301
0.00953325
0.00895544
0.00668686
0.00191346
0.00442608
0.00658823
0.00768918
0.00796236
0.00679915
0.00153937
0.00140023
0.00129249
0.00120283
0.00112642
0.00105781
0.000993141
0.000928938
0.000859608
0.00080297
0.000832261
0.00142626
0.000751047
0.00271845
0.007491
0.00300575
0.00475919
0.00594882
0.0063016
0.00642938
0.0064339
0.00636951
0.00631243
0.00639309
0.00671074
0.0072943
0.00812146
0.00908146
0.00996669
0.0105286
0.0105228
0.00944351
0.00960762
0.00982884
0.00986139
0.00966237
0.0090453
0.00719946
0.00621937
0.00554787
0.00500285
0.00446764
0.00394888
0.00344124
0.00293438
0.00241393
0.00185425
0.00141496
0.00141338
0.00111844
0.000895729
0.00118416
0.00113657
0.00310141
0.00954129
0.00353878
0.004013
0.00569927
0.00609064
0.0060589
0.00584029
0.00552802
0.00527048
0.00526446
0.00559723
0.00626203
0.00722099
0.00834366
0.00946611
0.0104204
0.0110303
0.0111415
0.01103
0.0108351
0.0105586
0.0102029
0.00974978
0.00908796
0.00845001
0.0078706
0.00731095
0.00670603
0.00605974
0.0053694
0.00462941
0.00383516
0.00299259
0.00222983
0.00167424
0.00130052
0.00145675
0.00253327
0.00135944
0.0034922
0.0114364
0.00471584
0.00328765
0.00512056
0.00576081
0.00568929
0.00533584
0.00482345
0.00437297
0.00435991
0.00478021
0.00554133
0.00661382
0.00783362
0.00904141
0.0100804
0.0108243
0.0111664
0.0111401
0.010896
0.0105261
0.0101024
0.00967959
0.0092705
0.00889492
0.00854194
0.00816543
0.00771016
0.00716201
0.00651318
0.00576077
0.00490763
0.00397517
0.00306346
0.0022152
0.00163213
0.00145571
0.00258135
0.00160205
0.00382796
0.0128689
0.00642877
0.00313091
0.00405576
0.00510668
0.0052531
0.00496273
0.00435712
0.00374491
0.00388357
0.00443976
0.00529165
0.00639724
0.00766525
0.00892969
0.0100072
0.010755
0.0110942
0.0110495
0.0107337
0.010268
0.0097669
0.00932242
0.0089798
0.008735
0.00854396
0.00833638
0.00804697
0.0076419
0.00710559
0.00643497
0.00563621
0.00473245
0.00379191
0.00284468
0.0019893
0.00134276
0.00367586
0.00209279
0.00392909
0.0121728
0.00795135
0.00404852
0.00274949
0.00336821
0.00394275
0.00399163
0.0035243
0.00342503
0.00378066
0.00443521
0.00535756
0.00653155
0.00786166
0.00916521
0.0102381
0.0109268
0.0111675
0.0109999
0.0105417
0.0099409
0.00934457
0.00886864
0.00856664
0.00841857
0.00835143
0.00827161
0.00810479
0.00781177
0.00737724
0.00679957
0.00608568
0.00525397
0.00434041
0.00331539
0.00191518
0.00172658
0.00559791
0.0024028
0.00384951
0.00980942
0.0082077
0.00555472
0.00366943
0.00284051
0.00268962
0.00281614
0.0030526
0.00342897
0.00396383
0.00470158
0.00570658
0.00697436
0.00837801
0.00969966
0.0107148
0.0112711
0.0113265
0.0109491
0.0102871
0.00952523
0.00884452
0.00837789
0.00816434
0.00813995
0.00818657
0.00818582
0.00807719
0.00783928
0.00746508
0.00695394
0.00630925
0.00553653
0.00461324
0.00321643
0.00138833
0.00343757
0.00520414
0.00242682
0.00360568
0.00838231
0.0079332
0.00635369
0.00489134
0.003938
0.00346597
0.00335875
0.00355347
0.00391278
0.00443651
0.00521709
0.0063294
0.00772133
0.00919682
0.0104887
0.0113601
0.0116794
0.0114457
0.0107751
0.0098663
0.00895566
0.00826213
0.00791416
0.00787527
0.00799089
0.00810619
0.00810857
0.00799337
0.00776271
0.00741253
0.00693649
0.00632771
0.00556864
0.00457025
0.00288007
0.0015068
0.00378413
0.00516199
0.00240282
0.00328283
0.00755769
0.00765147
0.00672364
0.00572118
0.00496581
0.00452069
0.00436126
0.0044007
0.00461807
0.00510071
0.00597547
0.00726405
0.00880679
0.0103119
0.0114694
0.0120571
0.0119971
0.011358
0.0103261
0.00917629
0.00821336
0.00766695
0.00755972
0.00766017
0.00781337
0.0079116
0.00788308
0.00774864
0.0075159
0.00717695
0.00670922
0.00608721
0.00525961
0.00413247
0.00260572
0.00170961
0.00381958
0.00576378
0.00241367
0.00299335
0.00676143
0.0073062
0.00686828
0.00622521
0.00568455
0.00532475
0.00514863
0.00509668
0.00528412
0.00589965
0.00704557
0.00860628
0.0102745
0.0116756
0.0125032
0.0126045
0.0119982
0.0108572
0.00946208
0.00819614
0.00738438
0.00703422
0.00700508
0.00711895
0.00725465
0.0073322
0.00730248
0.0071638
0.00692783
0.00657924
0.00607584
0.00534493
0.00432139
0.00309673
0.00212637
0.00205608
0.00405487
0.00569381
0.00257311
0.00300444
0.00671139
0.00746551
0.00695092
0.00643029
0.00600383
0.00569624
0.0054969
0.00549073
0.00594655
0.00703406
0.00865881
0.0104869
0.0120897
0.0130949
0.0132924
0.0126718
0.0113841
0.00975065
0.00816617
0.00701833
0.00635653
0.00606709
0.00601927
0.00609301
0.006189
0.00623997
0.00620935
0.006056
0.0057965
0.00539615
0.00477006
0.00383573
0.00275193
0.00202958
0.00197051
0.00259801
0.00463331
0.00585004
0.00261191
0.00271031
0.00282046
0.00416543
0.00489734
0.00512455
0.00512915
0.00508063
0.00517792
0.00581137
0.00716257
0.00906587
0.0111168
0.0128589
0.0139155
0.0140753
0.0133128
0.0118206
0.00988291
0.00803644
0.00659821
0.00565187
0.00513142
0.0049122
0.00485468
0.00485406
0.00484422
0.00479148
0.00468354
0.0044946
0.00420951
0.00381009
0.00323517
0.00252326
0.00198873
0.00194551
0.00239862
0.00329566
0.00477643
0.0059387
0.00248975
0.000964237
0.00173783
0.00266492
0.00340814
0.00427312
0.00574524
0.00791278
0.0103211
0.0125113
0.0141366
0.0149604
0.0148356
0.0137829
0.0119295
0.00974645
0.00769544
0.00608745
0.0050343
0.00447778
0.00422396
0.00410306
0.00401762
0.00391931
0.00378891
0.00362782
0.0034498
0.00326891
0.00306987
0.0028466
0.00257928
0.00228951
0.00213348
0.00231985
0.00290261
0.00376807
0.00463123
0.00492345
0.00238122
0.00178757
0.0024671
0.00358702
0.00558939
0.00830925
0.0110328
0.0131421
0.014663
0.015576
0.0158076
0.0152348
0.0137477
0.0115889
0.00918491
0.00701511
0.00543028
0.00453593
0.0041372
0.00397672
0.00389956
0.00383636
0.00375948
0.00366253
0.00355164
0.00343844
0.00333284
0.00323739
0.00314427
0.0030481
0.00294919
0.00286007
0.0028389
0.00301365
0.00350819
0.00431215
0.0052217
0.00589184
0.00238486
0.00323883
0.00787228
0.0072618
0.0064868
0.00822342
0.0109485
0.0132442
0.0147941
0.0156137
0.0158146
0.0154796
0.0145525
0.0129848
0.0108432
0.00846298
0.00638641
0.00505118
0.00443018
0.00421006
0.00414544
0.00411985
0.00408669
0.00403115
0.003954
0.0038638
0.00377203
0.00369042
0.00362986
0.00359938
0.00360339
0.00363517
0.00368605
0.00375951
0.00389631
0.00416041
0.00464136
0.00544758
0.00675829
0.00699347
0.00265917
0.00309542
0.00597873
0.00771321
0.00987322
0.0109507
0.0120592
0.0127014
0.0128535
0.0126068
0.012019
0.0111
0.00983478
0.00826855
0.00661915
0.00524197
0.00439613
0.00401188
0.00389003
0.00388277
0.00391071
0.00393396
0.00393459
0.00390821
0.0038586
0.00379367
0.003724
0.00366398
0.00363345
0.00365647
0.00375603
0.00394514
0.00421093
0.00450293
0.00479222
0.00516201
0.00570528
0.00650131
0.00778209
0.00758343
0.0027823
0.00289436
0.00248109
0.00246873
0.00254077
0.00260014
0.00252235
0.00237154
0.00219497
0.00201588
0.00184201
0.00167535
0.00152045
0.00138902
0.00129576
0.00124647
0.00122911
0.00123042
0.00124036
0.00125355
0.00126746
0.00128126
0.00129521
0.00131043
0.00132882
0.00135285
0.00138544
0.00142942
0.00148663
0.0015569
0.00163778
0.00172552
0.0018171
0.00191224
0.00201142
0.00211427
0.00222396
0.00234186
0.00247221
0.00261622
0.00253722
)
;

boundaryField
{
    floor
    {
        type            compressible::alphatWallFunction;
        Prt             0.85;
        value           nonuniform List<scalar> 
36
(
0.000219859
0.00010446
0.000149976
0.000151161
0.000147547
0.000141485
0.00013334
0.000125173
0.000117599
0.000110723
0.000104514
9.89419e-05
9.3905e-05
8.92886e-05
8.49546e-05
8.07125e-05
7.62496e-05
7.2521e-05
6.49342e-05
6.49334e-05
8.41628e-05
9.64282e-05
0.000106548
0.000127394
0.000167861
0.000161268
0.000219857
0.000239678
0.000229069
0.000219735
0.000104459
0.000219733
0.000186345
0.000266711
0.000232716
0.000265663
)
;
    }
    ceiling
    {
        type            compressible::alphatWallFunction;
        Prt             0.85;
        value           nonuniform List<scalar> 
43
(
0.000391131
0.000338957
0.000337389
0.000346559
0.000354105
0.00034427
0.000325078
0.00030243
0.000279252
0.000256531
0.000234526
0.000213845
0.000196102
0.000183389
0.000176622
0.000174227
0.000174404
0.000175774
0.000177591
0.000179507
0.000181404
0.000183314
0.000185391
0.000187885
0.000191132
0.000195521
0.000201429
0.0002091
0.000218506
0.000229307
0.000240987
0.000253126
0.000265671
0.000278691
0.000292111
0.000306323
0.000321496
0.000338166
0.000356444
0.000346268
0.000368325
0.000382171
0.00024864
)
;
    }
    sWall
    {
        type            compressible::alphatWallFunction;
        Prt             0.85;
        value           nonuniform List<scalar> 9(0.000507609 0.000477865 0.000438164 0.000402232 0.000403605 0.00036675 0.000432087 0.000414354 0.000389381);
    }
    nWall
    {
        type            compressible::alphatWallFunction;
        Prt             0.85;
        value           nonuniform List<scalar> 
14
(
0.00016082
0.000191395
0.000224058
0.000331571
0.000328569
0.000330145
0.000350389
0.000355203
0.000339512
0.000325592
0.000326359
0.000361062
0.000376464
0.000345573
)
;
    }
    sideWalls
    {
        type            empty;
    }
    glass1
    {
        type            compressible::alphatWallFunction;
        Prt             0.85;
        value           nonuniform List<scalar> 9(0.000143931 0.000209139 0.000262697 0.000313308 0.000362383 0.000410008 0.000458021 0.00049888 0.000511235);
    }
    glass2
    {
        type            compressible::alphatWallFunction;
        Prt             0.85;
        value           nonuniform List<scalar> 2(0.000286386 0.000326133);
    }
    sun
    {
        type            compressible::alphatWallFunction;
        Prt             0.85;
        value           nonuniform List<scalar> 
14
(
0.000147965
0.000157652
0.000157095
0.000163763
0.000169845
0.000175346
0.000180448
0.00018535
0.00019027
0.000195482
0.000200439
0.000205135
0.000209751
0.000214703
)
;
    }
    Table_master
    {
        type            compressible::alphatWallFunction;
        Prt             0.85;
        value           nonuniform List<scalar> 9(0.000191118 0.000166926 0.000147971 0.000132939 0.000120835 0.000110964 0.00010284 9.61779e-05 9.0946e-05);
    }
    Table_slave
    {
        type            compressible::alphatWallFunction;
        Prt             0.85;
        value           nonuniform List<scalar> 9(0.000216408 0.000197652 0.000182986 0.000170675 0.0001601 0.000150534 0.000141453 0.000132368 0.000122474);
    }
    inlet
    {
        type            fixedValue;
        value           uniform 1.94e-05;
    }
    outlet
    {
        type            zeroGradient;
    }
}


// ************************************************************************* //
