/*--------------------------------*- C++ -*----------------------------------*\
  =========                 |
  \\      /  F ield         | OpenFOAM: The Open Source CFD Toolbox
   \\    /   O peration     | Website:  https://openfoam.org
    \\  /    A nd           | Version:  6
     \\/     M anipulation  |
\*---------------------------------------------------------------------------*/
FoamFile
{
    version     2.0;
    format      ascii;
    class       volScalarField;
    location    "1500";
    object      alphat;
}
// * * * * * * * * * * * * * * * * * * * * * * * * * * * * * * * * * * * * * //

dimensions      [1 -1 -1 0 0 0 0];

internalField   nonuniform List<scalar> 
778
(
0.000936987
0.000988553
0.00140112
0.000982376
0.00238921
0.00180075
0.00102401
0.00196779
0.00340739
0.00219637
0.00106147
0.00222879
0.00224606
0.00480546
0.00259338
0.00109485
0.00238122
0.00319899
0.00214227
0.00663465
0.00298689
0.00112526
0.00254647
0.00348904
0.00365808
0.0022184
0.00871994
0.00338899
0.00115389
0.00271093
0.00375024
0.00411415
0.00354988
0.00276003
0.010662
0.00374732
0.00118197
0.00286125
0.00399238
0.00438131
0.00431123
0.00301571
0.00391737
0.0121584
0.00385894
0.00121094
0.00298176
0.0042057
0.00458896
0.00454501
0.0042205
0.00244541
0.0056543
0.0117576
0.00379497
0.00124042
0.00305467
0.00438241
0.00474198
0.00465296
0.00447078
0.0038975
0.00236238
0.00741664
0.00954162
0.00356991
0.00126995
0.00308969
0.00451278
0.00484576
0.00467393
0.00447836
0.00431564
0.00317252
0.00339997
0.00782707
0.0081803
0.0032612
0.00130125
0.00306525
0.00460347
0.00491079
0.00462884
0.00436101
0.00428914
0.00398223
0.0020923
0.00505127
0.00762953
0.00738124
0.00297678
0.00133736
0.00294282
0.00469044
0.00496101
0.00455702
0.00415391
0.00409523
0.00408741
0.00271958
0.00309305
0.00595287
0.00738899
0.00658947
0.00298091
0.00137792
0.00264589
0.00476604
0.00508216
0.00451831
0.00392945
0.00377842
0.00393804
0.00322715
0.00223911
0.00441162
0.00638893
0.00706365
0.00654356
0.00269238
0.00209992
0.00479516
0.00529961
0.00461278
0.0038102
0.00341407
0.00362951
0.00332139
0.00207643
0.00339977
0.00532191
0.00657384
0.00717072
0.002799
0.00151376
0.00470329
0.00560828
0.00487911
0.00388318
0.00322989
0.00307242
0.00315287
0.00218829
0.00287307
0.00450637
0.00588307
0.00661605
0.00276086
0.00148941
0.00432153
0.00593496
0.00533436
0.0041602
0.00333837
0.00289213
0.0027279
0.00234729
0.0027003
0.00399966
0.00529256
0.00605969
0.00343693
0.000230211
0.00147269
0.00331749
0.00606354
0.00596809
0.00464172
0.00365725
0.00310395
0.00280587
0.00260044
0.00282293
0.00377362
0.0048796
0.00559226
0.00383555
0.000119197
0.00323741
0.00175385
0.00557317
0.00671199
0.00534498
0.00415434
0.00348285
0.00311459
0.00294273
0.00308883
0.00375863
0.00464444
0.00523422
0.00396771
0.000155455
0.000485945
0.00281573
0.00406431
0.0074476
0.00625847
0.00487312
0.00400507
0.00352592
0.00331358
0.00338003
0.00382586
0.0044943
0.00496377
0.00392832
0.000296431
0.000307754
0.000913863
0.00449555
0.00504192
0.00187496
0.00806408
0.0072969
0.00583199
0.00472661
0.00406581
0.00373056
0.00367322
0.00391379
0.00434527
0.00461516
0.00371841
0.000431193
0.000401517
0.00205864
0.00604738
0.00281777
0.00443131
0.00215999
0.00650616
0.00821813
0.00834867
0.0069166
0.00567214
0.00481487
0.004295
0.00405607
0.00407287
0.00424844
0.00428026
0.00338966
0.000566639
0.00120438
0.00558907
0.00732459
0.0022208
0.00275129
0.00224304
0.00171138
0.00819321
0.00918307
0.00911782
0.00799025
0.00676055
0.00579513
0.00510768
0.00467281
0.00445983
0.00438526
0.00420971
0.00338442
0.00132024
0.00381056
0.00889246
0.00910836
0.00229032
0.00270305
0.00139809
0.00469901
0.00878473
0.00961661
0.00953778
0.00883001
0.00782133
0.00690748
0.00616467
0.00560539
0.00522189
0.00496431
0.0046826
0.00408076
0.00314768
0.00717871
0.0112715
0.0103772
0.00228865
0.00105903
0.00278773
0.00637569
0.00866875
0.00970615
0.009733
0.00930468
0.0086565
0.00796066
0.00732306
0.00678195
0.00635906
0.00605061
0.00580874
0.00557575
0.00578483
0.0100189
0.0127473
0.0110389
0.00221776
0.00106442
0.00393397
0.00682397
0.00710457
0.00950782
0.00970779
0.00948564
0.00914445
0.0087577
0.00836
0.00798817
0.00768088
0.0074748
0.00740679
0.00758142
0.0085322
0.0119234
0.0134806
0.0112108
0.00210728
0.00106469
0.00446625
0.00580967
0.0015319
0.00886182
0.0095059
0.00942235
0.00929172
0.00918286
0.00907415
0.00896449
0.00888609
0.0088936
0.00906803
0.00956672
0.0107697
0.0130225
0.013712
0.0110132
0.00198504
0.00104885
0.00432751
0.0013641
0.00137837
0.00703279
0.00914271
0.00919348
0.00916412
0.00923331
0.00936363
0.00951637
0.00969611
0.00994649
0.0103471
0.0110186
0.0121126
0.0134223
0.0134301
0.0105188
0.00186449
0.00101461
0.00323623
0.00116308
0.00126461
0.00608208
0.00854343
0.00887535
0.00886556
0.00898998
0.00924585
0.00957707
0.00995618
0.0103965
0.0109374
0.0116292
0.0124201
0.0130317
0.0125948
0.00973235
0.00174607
0.000958873
0.0027181
0.00101339
0.00117134
0.00542523
0.00795117
0.00851154
0.00850386
0.00857996
0.00883109
0.00920956
0.00966962
0.0101863
0.0107538
0.0113271
0.0117827
0.0117886
0.0111793
0.00865699
0.0016273
0.00090039
0.00237366
0.000899901
0.00109225
0.00490431
0.00741165
0.00815293
0.00815959
0.00813565
0.00827724
0.00857324
0.00897298
0.00943581
0.00989972
0.0102902
0.0103867
0.0100163
0.00930495
0.0073662
0.00151202
0.000845552
0.00211152
0.000812169
0.00102252
0.0044041
0.00691327
0.00781857
0.0078753
0.0077577
0.00774308
0.00786855
0.0081001
0.00838228
0.00866571
0.00879878
0.00865532
0.00808743
0.00735163
0.00605006
0.00141241
0.000796078
0.0018976
0.000742904
0.000957658
0.00390184
0.00638762
0.00749518
0.00765294
0.00749334
0.00734244
0.00728588
0.00730503
0.00736441
0.00739312
0.00730451
0.00699331
0.00636334
0.00577509
0.00499837
0.00134438
0.000751581
0.00171818
0.000687423
0.000893898
0.003404
0.00581499
0.00712547
0.00746204
0.00733444
0.00711644
0.00693782
0.00679926
0.00665856
0.00641231
0.00608339
0.00565469
0.00511454
0.00481364
0.00434338
0.00130718
0.000711442
0.00156231
0.000643173
0.000825782
0.00290619
0.00519418
0.00668199
0.00724247
0.00723415
0.00703281
0.00682636
0.00662564
0.00631303
0.00579979
0.00523513
0.00475708
0.00440256
0.00435867
0.00402066
0.00129433
0.000675035
0.00141898
0.000610042
0.00077712
0.00239729
0.00451947
0.00614902
0.00695145
0.00712717
0.00701668
0.00685777
0.00668035
0.00624657
0.00551028
0.00474452
0.00426273
0.00406342
0.00418849
0.00391069
0.00129766
0.000641649
0.0012786
0.000685306
0.000816652
0.00185536
0.0037846
0.00551472
0.00655749
0.0069561
0.00698674
0.00690866
0.00678627
0.00633567
0.00545602
0.0045268
0.00401717
0.00391069
0.00414469
0.00392065
0.00130996
0.000610363
0.00115159
0.000816323
0.00144675
0.00142465
0.00299389
0.00477301
0.00604107
0.00668161
0.00688682
0.00690091
0.0068295
0.00644847
0.00553204
0.00446948
0.00388858
0.00383059
0.00414271
0.00398834
0.00132634
0.000579938
0.00104368
0.0013142
0.000747549
0.00141483
0.00225857
0.00393627
0.00539395
0.0062813
0.00668482
0.00681302
0.00679025
0.00648384
0.00562683
0.00447682
0.003796
0.00376496
0.00413806
0.0040701
0.00134382
0.000548424
0.00117459
0.000673641
0.00114159
0.00166752
0.00308501
0.00462566
0.00574585
0.00636292
0.00663043
0.0066771
0.00642571
0.00565256
0.00447056
0.00368994
0.00368339
0.00410931
0.00413631
0.00136083
0.000522213
0.000591144
0.00091451
0.00130325
0.00221606
0.00378238
0.00507877
0.00591096
0.0063399
0.0064789
0.00628693
0.00556614
0.00439736
0.0035418
0.00357388
0.00405259
0.00417226
0.00137685
0.000472237
0.00122139
0.00150025
0.00162279
0.00285035
0.00429268
0.00531913
0.00592419
0.0061808
0.00605977
0.00538422
0.00422307
0.00334857
0.00344227
0.0039776
0.00417798
0.00139229
0.00115993
0.0026158
0.00146093
0.00196889
0.00331576
0.00454185
0.00534022
0.00574261
0.00571305
0.00509914
0.00396902
0.00313325
0.00330829
0.00390043
0.00416352
0.00140823
0.00137488
0.00263049
0.00131372
0.00186769
0.00329103
0.00444793
0.00504324
0.00514513
0.00465762
0.00365376
0.00291908
0.00319351
0.00383527
0.00414101
0.00142621
0.00162144
0.00386118
0.00168931
0.00140451
0.00295678
0.00383521
0.00410585
0.00389624
0.00326272
0.00273194
0.00310729
0.00378988
0.00411862
0.00144811
0.00214409
0.00609718
0.00315511
0.00154291
0.00230727
0.00258293
0.00270295
0.00273534
0.00257065
0.00305068
0.00376684
0.00410076
0.00147616
0.00242616
0.00573729
0.0033165
0.00182145
0.00179939
0.00181658
0.00211438
0.00241566
0.00301625
0.00376736
0.00409387
0.00151328
0.0024659
0.00635834
0.00369062
0.00230313
0.00197282
0.00184132
0.0022656
0.00299869
0.00379607
0.00411316
0.00156322
0.0024934
0.00646573
0.0042911
0.00291847
0.00228677
0.0022469
0.00301315
0.00386762
0.00418455
0.00163001
0.00263206
0.006611
0.00448427
0.00330897
0.00264122
0.00311508
0.00400157
0.00434125
0.00171647
0.00263865
0.00598262
0.00452438
0.00357384
0.0034339
0.00424062
0.00461213
0.00182244
0.00246651
0.00521718
0.00481556
0.00419252
0.00467644
0.00502234
0.00194463
0.00233608
0.00605053
0.00572435
0.00548479
0.00558746
0.00207917
0.00236956
0.00655861
0.00731653
0.00635306
0.00222599
0.00256431
0.00742808
0.00769535
0.0023819
0.00265415
0.00785119
0.00254503
0.00273013
0.00270358
0.00253668
)
;

boundaryField
{
    floor
    {
        type            compressible::alphatWallFunction;
        Prt             0.85;
        value           nonuniform List<scalar> 
36
(
0.000194359
0.000150444
0.000151195
0.000151231
0.000149015
0.000144213
0.000136352
0.000128048
0.000120203
0.000113074
0.000106617
0.000100753
9.54001e-05
9.04606e-05
8.58033e-05
8.12462e-05
7.64948e-05
7.25177e-05
6.48651e-05
6.48643e-05
8.29295e-05
9.5196e-05
0.000106031
0.000130062
0.000172966
0.000164485
0.000194357
0.000212696
0.000209421
0.000207169
0.000150443
0.000207167
0.000197081
0.000244669
0.000239046
0.000260615
)
;
    }
    ceiling
    {
        type            compressible::alphatWallFunction;
        Prt             0.85;
        value           nonuniform List<scalar> 
43
(
0.000367102
0.00030851
0.000297807
0.000305657
0.000314606
0.000314414
0.000305322
0.000291071
0.000275205
0.000259456
0.000243879
0.000228137
0.000212728
0.000199292
0.000190036
0.000184947
0.000183175
0.00018362
0.000185298
0.000187539
0.000189931
0.000192255
0.000194443
0.000196546
0.000198708
0.000201138
0.000204083
0.00020784
0.000212788
0.000219418
0.000228255
0.000239661
0.000253602
0.000269618
0.000287162
0.000306161
0.000326235
0.000347108
0.000367283
0.000346085
0.000366064
0.000379478
0.000433246
)
;
    }
    sWall
    {
        type            compressible::alphatWallFunction;
        Prt             0.85;
        value           nonuniform List<scalar> 9(0.000500979 0.000473489 0.000435495 0.000400168 0.000400673 0.000364492 0.000379654 0.000371355 0.000365376);
    }
    nWall
    {
        type            compressible::alphatWallFunction;
        Prt             0.85;
        value           nonuniform List<scalar> 
14
(
0.000164031
0.000193467
0.000226607
0.000336459
0.000340012
0.00035755
0.000357864
0.00033605
0.000319612
0.000324433
0.000348941
0.000360272
0.000369806
0.000345385
)
;
    }
    sideWalls
    {
        type            empty;
    }
    glass1
    {
        type            compressible::alphatWallFunction;
        Prt             0.85;
        value           nonuniform List<scalar> 9(0.000129544 0.00019274 0.000245426 0.000296447 0.000346752 0.000395887 0.000445447 0.000489148 0.000502793);
    }
    glass2
    {
        type            compressible::alphatWallFunction;
        Prt             0.85;
        value           nonuniform List<scalar> 2(0.000292888 0.000328926);
    }
    sun
    {
        type            compressible::alphatWallFunction;
        Prt             0.85;
        value           nonuniform List<scalar> 
14
(
0.000133297
0.000140562
0.000139689
0.000145549
0.000150797
0.000155456
0.000159686
0.000163657
0.00016754
0.000171535
0.00017559
0.000179639
0.000183921
0.000188845
)
;
    }
    Table_master
    {
        type            compressible::alphatWallFunction;
        Prt             0.85;
        value           nonuniform List<scalar> 9(0.000192741 0.000165176 0.000144297 0.000128229 0.000115644 0.000105593 9.74616e-05 9.09188e-05 8.59841e-05);
    }
    Table_slave
    {
        type            compressible::alphatWallFunction;
        Prt             0.85;
        value           nonuniform List<scalar> 9(0.000215403 0.000194683 0.000179165 0.000166323 0.000155342 0.000145585 0.000136438 0.000127376 0.00011761);
    }
    inlet
    {
        type            fixedValue;
        value           uniform 1.94e-05;
    }
    outlet
    {
        type            zeroGradient;
    }
}


// ************************************************************************* //
