/*--------------------------------*- C++ -*----------------------------------*\
  =========                 |
  \\      /  F ield         | OpenFOAM: The Open Source CFD Toolbox
   \\    /   O peration     | Website:  https://openfoam.org
    \\  /    A nd           | Version:  6
     \\/     M anipulation  |
\*---------------------------------------------------------------------------*/
FoamFile
{
    version     2.0;
    format      ascii;
    class       volScalarField;
    location    "1500";
    object      epsilon;
}
// * * * * * * * * * * * * * * * * * * * * * * * * * * * * * * * * * * * * * //

dimensions      [0 2 -3 0 0 0 0];

internalField   nonuniform List<scalar> 
778
(
0.000184586
0.000216056
0.000618621
0.000211996
0.00125536
0.00131633
0.000240099
0.000202106
0.00368937
0.00239377
0.000267411
0.0001835
0.00029291
0.00817691
0.00394891
0.000293429
0.000184692
0.000173441
0.000535076
0.0151391
0.00604492
0.000318554
0.000188695
0.00016419
0.000171997
0.00107714
0.0242398
0.00884461
0.000343479
0.000194983
0.000165565
0.000147215
0.000182661
0.00216194
0.0330766
0.0119755
0.000369156
0.000204785
0.000170389
0.000146219
0.000127932
0.000224189
0.00406854
0.0397937
0.0131056
0.00039695
0.000219667
0.000178453
0.000148138
0.000123273
0.000111811
0.000334994
0.00689507
0.0415802
0.0124636
0.000426638
0.000241622
0.000189979
0.000151629
0.000122354
0.000101528
0.000105291
0.000663476
0.0134596
0.0284451
0.010376
0.000457802
0.000271279
0.000205416
0.000156951
0.00012243
9.79558e-05
8.50629e-05
0.000129794
0.0027352
0.0141884
0.0193944
0.00791324
0.000492451
0.000310603
0.000225543
0.000165265
0.000124129
9.53579e-05
7.87719e-05
8.03088e-05
0.00044514
0.00539156
0.0119064
0.0137736
0.00602242
0.000534542
0.000363533
0.000252958
0.00017839
0.000129282
9.46755e-05
7.4155e-05
6.89753e-05
0.000135193
0.00184472
0.00607988
0.00960593
0.0100905
0.00604396
0.000584604
0.000438019
0.000291157
0.000199015
0.000140376
9.89188e-05
7.21909e-05
6.26337e-05
8.72628e-05
0.000668606
0.00295825
0.00579383
0.00771904
0.00773212
0.00445997
0.000560783
0.000346882
0.000229786
0.000159681
0.000112177
7.82189e-05
6.08263e-05
7.27264e-05
0.000302777
0.00149166
0.00341883
0.00522747
0.00681105
0.00500199
0.000774842
0.00043084
0.000273945
0.000188725
0.000134904
9.88743e-05
7.55263e-05
7.43323e-05
0.000186345
0.000832602
0.00208232
0.00347855
0.00474169
0.0055826
0.000737912
0.000541207
0.000334006
0.000228955
0.00016636
0.000129591
0.000109822
0.000109897
0.000173065
0.000540733
0.0013545
0.00237546
0.0033529
0.00412914
0.18038
0.000713251
0.000674108
0.000409457
0.000281052
0.000206633
0.000166369
0.000149822
0.000153565
0.000204745
0.00043062
0.000963713
0.00169467
0.00243634
0.00302148
0.0271937
0.00704773
0.0012045
0.000516526
0.00034294
0.000257169
0.000208579
0.00019124
0.000197143
0.000242969
0.00039646
0.00075425
0.00127688
0.0018302
0.00226079
0.00642519
0.00715412
0.00398006
0.000809505
0.000416022
0.000317476
0.0002597
0.000235298
0.000238554
0.000277797
0.00038933
0.000634388
0.00100959
0.00142428
0.00173574
0.00260026
0.00292218
0.00302491
0.0068721
0.00318498
0.00147118
0.000525682
0.000382842
0.000321437
0.00028703
0.000282431
0.000311208
0.000392537
0.000562282
0.000827454
0.00113082
0.00135529
0.00143531
0.00147659
0.00232018
0.00334622
0.00489947
0.00411499
0.00223131
0.000598953
0.000632827
0.000450609
0.000385415
0.000348668
0.000336298
0.000352588
0.000408655
0.000524738
0.000707977
0.000921811
0.00107328
0.000955259
0.00124589
0.00273033
0.00324391
0.00242651
0.00457854
0.0024974
0.00111841
0.00041952
0.000474299
0.000486966
0.000439578
0.000412697
0.00040164
0.000410675
0.000448519
0.000527723
0.000654327
0.000807539
0.000927973
0.000903358
0.00172636
0.00316307
0.00326042
0.00266414
0.00437027
0.000609811
0.000459319
0.000351917
0.000405936
0.000443987
0.000461976
0.00046239
0.000467466
0.000482887
0.000516586
0.00057867
0.000676772
0.000806012
0.000949857
0.0011407
0.00240382
0.0033862
0.00308391
0.00266483
0.000265151
0.000360124
0.000339837
0.000303814
0.000352135
0.000397872
0.000441573
0.000479328
0.000513629
0.000551361
0.000599817
0.000668471
0.000768494
0.000911547
0.00112322
0.00153759
0.00289441
0.00335143
0.00275538
0.00243092
0.000269157
0.000279998
0.000280133
0.000296788
0.000302915
0.000345367
0.000397407
0.000457395
0.000521995
0.000590953
0.000668906
0.000765076
0.000893293
0.0010773
0.00137163
0.00193266
0.00305652
0.00310061
0.0023786
0.00208964
0.000269338
0.000232838
0.000258753
0.000801838
0.000265983
0.000292646
0.000340722
0.000406563
0.000488312
0.000583384
0.000693019
0.000824262
0.000992652
0.00122524
0.00157874
0.0021633
0.00290893
0.00274198
0.00202078
0.00174937
0.000257489
0.000200029
0.000566174
0.000584079
0.000259621
0.000246215
0.000282669
0.000341296
0.000423225
0.000528062
0.000656192
0.000813077
0.00101099
0.00127587
0.0016434
0.00213332
0.00250276
0.00229684
0.00170578
0.00145137
0.000233088
0.000188613
0.000350942
0.000451062
0.000230385
0.000209599
0.000231063
0.000275408
0.000344232
0.000440332
0.000565943
0.000724935
0.000927166
0.00118503
0.00151712
0.00186322
0.0018984
0.00179906
0.00143275
0.00119325
0.000196748
0.000155789
0.000232135
0.000358435
0.000200309
0.00017917
0.000189314
0.000218079
0.000267559
0.000342305
0.000446099
0.00058309
0.000757017
0.000974835
0.0012159
0.00142397
0.00132557
0.00130513
0.00119773
0.000966805
0.000162904
0.000125411
0.000162554
0.000290617
0.000173982
0.000154619
0.000157233
0.000172982
0.000203364
0.000252673
0.000325069
0.000423251
0.00054998
0.000696389
0.000851067
0.000886675
0.000850886
0.00089829
0.000999663
0.000776072
0.000134919
0.000100702
0.000119497
0.000238439
0.000152534
0.000134987
0.000133209
0.00013974
0.000154994
0.000181825
0.000223136
0.000280943
0.000352459
0.000436237
0.000485515
0.00051836
0.000513419
0.000617039
0.00083864
0.000632727
0.000112598
8.12916e-05
9.14572e-05
0.000195876
0.000134885
0.000119322
0.000115197
0.000116018
0.000121082
0.000131647
0.000149296
0.000174102
0.000206253
0.000230506
0.000266009
0.000295798
0.00032868
0.000458778
0.000719548
0.000545489
9.47559e-05
6.6108e-05
7.24593e-05
0.000159297
0.00011977
0.000106591
0.000101372
9.90415e-05
9.82199e-05
9.88428e-05
0.000101742
0.00010744
0.000113177
0.000129165
0.000153032
0.000187961
0.00024132
0.000385411
0.000643387
0.000501319
8.03732e-05
5.41807e-05
5.93483e-05
0.000125584
0.000106454
9.58873e-05
9.04722e-05
8.66238e-05
8.27412e-05
7.84106e-05
7.37457e-05
7.05479e-05
7.10669e-05
8.07445e-05
0.000102569
0.000140136
0.000203323
0.000354188
0.000601682
0.000486526
6.86575e-05
4.47445e-05
5.06421e-05
7.40173e-05
9.42185e-05
8.66255e-05
8.15036e-05
7.72276e-05
7.22314e-05
6.574e-05
5.82362e-05
5.15758e-05
5.08219e-05
5.83578e-05
7.89178e-05
0.000117696
0.000184725
0.000340141
0.000583839
0.000490179
5.89682e-05
3.74551e-05
3.84667e-05
4.90174e-05
7.60403e-05
7.83362e-05
7.38336e-05
6.97323e-05
6.47428e-05
5.80312e-05
4.98852e-05
4.26134e-05
4.062e-05
4.67915e-05
6.59641e-05
0.000104406
0.000172905
0.000331511
0.000580767
0.000504218
5.07582e-05
3.2826e-05
3.30389e-05
0.00015876
5.86802e-05
6.91471e-05
6.70646e-05
6.3441e-05
5.90003e-05
5.29531e-05
4.55073e-05
3.84688e-05
3.54908e-05
4.01613e-05
5.74739e-05
9.47349e-05
0.00016371
0.000323665
0.000585596
0.000523406
4.35418e-05
3.07079e-05
0.000108561
9.3279e-05
0.000108126
6.03702e-05
6.07254e-05
5.79643e-05
5.42641e-05
4.91825e-05
4.28258e-05
3.65685e-05
3.31402e-05
3.62623e-05
5.15112e-05
8.71928e-05
0.000156369
0.000315317
0.00059347
0.000544464
3.68241e-05
6.31961e-05
6.82589e-05
0.000149597
7.65278e-05
5.58043e-05
5.31554e-05
5.01663e-05
4.60556e-05
4.08075e-05
3.54466e-05
3.21105e-05
3.41291e-05
4.74463e-05
8.16613e-05
0.00015129
0.000307129
0.000601564
0.000565502
3.17952e-05
4.61288e-05
0.000170774
0.000103818
6.09931e-05
4.97934e-05
4.66624e-05
4.3308e-05
3.90346e-05
3.45298e-05
3.15297e-05
3.30922e-05
4.4923e-05
7.82784e-05
0.000149239
0.000300864
0.000609087
0.000585821
2.35198e-05
0.000406896
0.000225975
7.68547e-05
5.22435e-05
4.44442e-05
4.1037e-05
3.74469e-05
3.36605e-05
3.10752e-05
3.25105e-05
4.37756e-05
7.70223e-05
0.000150887
0.000298608
0.000617092
0.000605829
0.000348769
0.00112895
0.00018256
6.89516e-05
4.79783e-05
4.02846e-05
3.64711e-05
3.30678e-05
3.07883e-05
3.22336e-05
4.34967e-05
7.75332e-05
0.000156484
0.000302137
0.000628088
0.000626905
0.000580882
0.00171445
0.000384545
9.62491e-05
4.9154e-05
3.81497e-05
3.3966e-05
3.15284e-05
3.2731e-05
4.39307e-05
8.01818e-05
0.000165648
0.000312652
0.000645657
0.000651195
0.000952703
0.00601168
0.00120312
0.000199895
5.52426e-05
4.10757e-05
3.68963e-05
3.65911e-05
4.60054e-05
8.4215e-05
0.00017718
0.000330919
0.000674274
0.000681503
0.00220739
0.0160794
0.00369255
0.000237847
7.80463e-05
6.21217e-05
5.47218e-05
5.40107e-05
9.02419e-05
0.000191018
0.000357492
0.000719327
0.000721561
0.0032002
0.0121535
0.00281013
0.00031262
0.000170379
0.000128439
8.38444e-05
0.000102182
0.000207386
0.000392647
0.000787283
0.000776796
0.00336295
0.0109858
0.00229446
0.000554754
0.000372809
0.000186769
0.00013368
0.000228354
0.000436622
0.000885909
0.000855332
0.0034795
0.00867912
0.00232602
0.00103449
0.000495437
0.000224866
0.00026397
0.000492013
0.00102433
0.000968478
0.00409002
0.00750332
0.00276083
0.00127825
0.000479621
0.000341523
0.000572036
0.00121231
0.00112966
0.00409583
0.00647466
0.00295265
0.00111957
0.000528296
0.000708824
0.00145625
0.00135141
0.00334655
0.00545671
0.00254188
0.00100171
0.000952461
0.0017696
0.00164227
0.00285154
0.00566622
0.00241957
0.00146997
0.00220607
0.00200867
0.00299641
0.00472392
0.0032938
0.00286513
0.00246624
0.0037816
0.00458527
0.00428675
0.00302476
0.00419095
0.00583371
0.00369427
0.00455947
0.0044345
0.0036605
)
;

boundaryField
{
    floor
    {
        Cmu             0.09;
        kappa           0.41;
        E               9.8;
        type            epsilonWallFunction;
        value           nonuniform List<scalar> 
36
(
0.000584604
0.000265151
0.000269157
0.000269338
0.000257489
0.000233088
0.000196748
0.000162904
0.000134919
0.000112598
9.47559e-05
8.03732e-05
6.86575e-05
5.89682e-05
5.07582e-05
4.35418e-05
3.68241e-05
3.17952e-05
2.35198e-05
2.35198e-05
4.61288e-05
6.82589e-05
9.3279e-05
0.000170774
0.000406896
0.000348769
0.000584604
0.000774842
0.000737912
0.000713251
0.000265151
0.000713251
0.000609811
0.0012045
0.00111841
0.00147118
)
;
    }
    ceiling
    {
        Cmu             0.09;
        kappa           0.41;
        E               9.8;
        type            epsilonWallFunction;
        value           nonuniform List<scalar> 
43
(
0.00437027
0.0024974
0.00223131
0.00242651
0.00266414
0.00266483
0.00243092
0.00208964
0.00174937
0.00145137
0.00119325
0.000966805
0.000776072
0.000632727
0.000545489
0.000501319
0.000486526
0.000490179
0.000504218
0.000523406
0.000544464
0.000565502
0.000585821
0.000605829
0.000626905
0.000651195
0.000681503
0.000721561
0.000776796
0.000855332
0.000968478
0.00112966
0.00135141
0.00164227
0.00200867
0.00246624
0.00302476
0.00369427
0.0044345
0.0036605
0.00445997
0.00500199
0.00704773
)
;
    }
    sWall
    {
        Cmu             0.09;
        kappa           0.41;
        E               9.8;
        type            epsilonWallFunction;
        value           nonuniform List<scalar> 9(0.0124636 0.010376 0.00791324 0.00602242 0.00604396 0.00445997 0.00489947 0.00457854 0.00437027);
    }
    nWall
    {
        Cmu             0.09;
        kappa           0.41;
        E               9.8;
        type            epsilonWallFunction;
        value           nonuniform List<scalar> 
14
(
0.000348769
0.000580882
0.000952703
0.00336295
0.0034795
0.00409002
0.00409583
0.00334655
0.00285154
0.00299641
0.0037816
0.00419095
0.00455947
0.0036605
)
;
    }
    sideWalls
    {
        type            empty;
    }
    glass1
    {
        Cmu             0.09;
        kappa           0.41;
        E               9.8;
        type            epsilonWallFunction;
        value           nonuniform List<scalar> 9(0.000184586 0.000618621 0.00131633 0.00239377 0.00394891 0.00604492 0.00884461 0.0119755 0.0131056);
    }
    glass2
    {
        Cmu             0.09;
        kappa           0.41;
        E               9.8;
        type            epsilonWallFunction;
        value           nonuniform List<scalar> 2(0.00220739 0.0032002);
    }
    sun
    {
        Cmu             0.09;
        kappa           0.41;
        E               9.8;
        type            epsilonWallFunction;
        value           nonuniform List<scalar> 
14
(
0.000184586
0.000216056
0.000211996
0.000240099
0.000267411
0.000293429
0.000318554
0.000343479
0.000369156
0.00039695
0.000426638
0.000457802
0.000492451
0.000534542
)
;
    }
    Table_master
    {
        Cmu             0.09;
        kappa           0.41;
        E               9.8;
        type            epsilonWallFunction;
        value           nonuniform List<scalar> 9(0.000566174 0.000350942 0.000232135 0.000162554 0.000119497 9.14572e-05 7.24593e-05 5.93483e-05 5.06421e-05);
    }
    Table_slave
    {
        Cmu             0.09;
        kappa           0.41;
        E               9.8;
        type            epsilonWallFunction;
        value           nonuniform List<scalar> 9(0.000801838 0.000584079 0.000451062 0.000358435 0.000290617 0.000238439 0.000195876 0.000159297 0.000125584);
    }
    inlet
    {
        type            turbulentMixingLengthDissipationRateInlet;
        mixingLength    0.00315;
        phi             phi;
        k               k;
        value           uniform 1.49737;
    }
    outlet
    {
        type            zeroGradient;
    }
}


// ************************************************************************* //
