/*--------------------------------*- C++ -*----------------------------------*\
  =========                 |
  \\      /  F ield         | OpenFOAM: The Open Source CFD Toolbox
   \\    /   O peration     | Website:  https://openfoam.org
    \\  /    A nd           | Version:  6
     \\/     M anipulation  |
\*---------------------------------------------------------------------------*/
FoamFile
{
    version     2.0;
    format      ascii;
    class       volScalarField;
    location    "1500";
    object      epsilon;
}
// * * * * * * * * * * * * * * * * * * * * * * * * * * * * * * * * * * * * * //

dimensions      [0 2 -3 0 0 0 0];

internalField   nonuniform List<scalar> 
778
(
6.07232e-05
7.17159e-05
0.000320635
8.381e-05
0.000274031
0.00135412
9.83752e-05
0.000260454
0.000867862
0.00219296
0.000110465
0.000288951
0.000543679
0.00144011
0.00312457
0.000111888
0.0003166
0.00037963
0.000861552
0.00218254
0.00419619
0.000103753
0.000169455
0.000337246
0.000525014
0.0012782
0.00306416
0.00545986
0.000103069
8.48058e-05
0.000287285
0.000376761
0.000717175
0.00177039
0.00406942
0.00699066
0.000104213
6.62567e-05
0.000148757
0.000319597
0.000442052
0.000938963
0.00232222
0.00518538
0.00890515
0.000101958
6.27156e-05
8.37962e-05
0.000234591
0.000339593
0.000519468
0.00117215
0.00292756
0.00647039
0.0113998
9.50065e-05
6.14797e-05
6.92804e-05
0.000128751
0.000284008
0.000361101
0.000592317
0.00140039
0.00361124
0.00814552
0.0147251
8.66007e-05
5.97198e-05
6.41312e-05
8.98499e-05
0.000198963
0.000316638
0.000380115
0.000643924
0.00160789
0.00445581
0.0105589
0.0193325
8.25229e-05
5.94371e-05
6.0377e-05
7.40953e-05
0.000126348
0.000264317
0.000350475
0.000391153
0.000655519
0.00176342
0.00550258
0.0146452
0.0261115
9.04473e-05
6.88443e-05
5.80326e-05
6.42202e-05
9.24091e-05
0.000175221
0.000322489
0.00039304
0.000394173
0.00059805
0.00168124
0.0064844
0.0227021
0.0371208
0.000146725
0.000111045
6.00827e-05
5.77839e-05
7.31409e-05
0.000118856
0.000228691
0.000378769
0.000448476
0.000413436
0.000552552
0.00154791
0.00789508
0.0436576
0.0582976
0.000252136
7.23164e-05
5.54797e-05
6.1983e-05
8.78457e-05
0.000149734
0.000271935
0.000419357
0.000498735
0.000457243
0.000546234
0.00158106
0.0132991
0.103493
0.000313254
0.000104066
5.93334e-05
5.71251e-05
7.14668e-05
0.000106501
0.000177847
0.000296429
0.000436011
0.000530872
0.000518534
0.000617536
0.00199771
0.163412
0.000449093
0.000235198
7.23043e-05
5.82558e-05
6.45356e-05
8.46235e-05
0.000125257
0.000197021
0.000300319
0.000427699
0.000541082
0.000601454
0.000908357
0.00908952
0.451815
0.000342032
0.000547022
0.000107978
6.59814e-05
6.45713e-05
7.50725e-05
9.85235e-05
0.000139919
0.00020207
0.000287598
0.000403505
0.000540295
0.000741174
0.00159554
0.120839
0.178712
0.00066907
0.000248281
8.47878e-05
7.03206e-05
7.28896e-05
8.59111e-05
0.000110357
0.000147412
0.000197454
0.000270185
0.000380241
0.000558158
0.00099017
0.00513084
0.0552532
0.101222
0.00118741
0.000144097
8.1485e-05
7.48278e-05
8.06914e-05
9.54937e-05
0.000119376
0.000151567
0.000196211
0.000265695
0.000390413
0.000673085
0.00170405
0.00954151
0.0377323
0.0387882
0.0445526
0.000893627
0.000408082
0.000101163
7.84564e-05
7.88652e-05
8.80394e-05
0.000105481
0.000130667
0.000165221
0.000216464
0.000310166
0.000530572
0.00123389
0.00438447
0.0199707
0.0290727
0.0136578
0.023303
0.0207593
0.00140684
0.000528057
0.000142415
8.30985e-05
7.81704e-05
8.41861e-05
9.88432e-05
0.000122579
0.000157097
0.000208106
0.000300039
0.00051876
0.00119486
0.00378607
0.0140607
0.0234788
0.0187711
0.00997323
0.0155245
0.000814767
0.000624151
0.000349341
0.000159227
9.00058e-05
7.807e-05
8.21202e-05
9.59718e-05
0.000121089
0.000160384
0.00022072
0.000329201
0.00058298
0.00133497
0.00395555
0.0131182
0.0214608
0.0169373
0.00746299
0.00047508
0.00125297
0.000269858
0.000231264
0.000135741
9.30745e-05
7.89202e-05
8.13392e-05
9.52994e-05
0.000123097
0.000169431
0.000243685
0.00037775
0.000683284
0.00154878
0.00435019
0.0134008
0.0213115
0.0155341
0.000160275
0.000910151
0.000420802
0.000140171
0.000126725
0.000109446
8.91643e-05
7.98038e-05
8.18319e-05
9.61561e-05
0.000127021
0.000181366
0.000271727
0.00043534
0.000797471
0.00177558
0.00475618
0.0138258
0.0224237
0.0144197
0.000189823
0.000310369
0.000201336
9.11111e-05
8.74974e-05
8.56837e-05
8.29887e-05
8.00023e-05
8.33823e-05
9.82908e-05
0.000132059
0.00019456
0.000301895
0.00049642
0.000914168
0.00198976
0.00508575
0.0141333
0.0241212
0.0137515
6.51785e-05
0.000146243
0.000116191
0.000100384
7.18878e-05
7.4629e-05
7.79454e-05
8.04883e-05
8.58637e-05
0.00010157
0.000137814
0.000207994
0.0003322
0.000557317
0.00102675
0.00218138
0.00533546
0.0142643
0.0258035
0.0135323
3.21406e-05
8.28634e-05
0.000131337
5.23727e-05
6.56129e-05
7.07183e-05
7.70728e-05
8.25104e-05
8.95799e-05
0.00010596
0.000144119
0.000221029
0.000361169
0.000615324
0.00113031
0.00234453
0.00552135
0.0142109
0.0270922
0.0136778
1.93387e-05
5.60464e-05
8.09157e-05
3.72005e-05
6.11195e-05
7.16302e-05
8.02435e-05
8.7185e-05
9.50283e-05
0.000111635
0.00015097
0.000233315
0.000387727
0.000668584
0.00122181
0.00247533
0.0056294
0.0139913
0.0278376
0.0140757
1.30985e-05
3.91638e-05
5.42494e-05
5.37436e-05
6.52417e-05
7.76148e-05
8.73397e-05
9.48904e-05
0.000102725
0.000118897
0.000158527
0.000244752
0.000411168
0.000715804
0.00130107
0.0025739
0.00567476
0.0136671
0.0280555
0.0146019
1.05454e-05
2.80212e-05
3.82642e-05
8.12392e-05
8.33629e-05
8.99985e-05
9.88855e-05
0.000106013
0.000113084
0.000128119
0.000167082
0.000255473
0.000431179
0.000755955
0.00136894
0.00264844
0.00567522
0.0132848
0.0278503
0.0151423
9.13917e-06
2.0622e-05
2.77365e-05
0.000120777
0.000110482
0.000109686
0.000115519
0.000121105
0.000126574
0.000139716
0.000177037
0.000265821
0.000447819
0.00078863
0.00142413
0.00271123
0.00564479
0.0128804
0.0273604
0.0156108
7.4331e-06
1.50928e-05
2.03283e-05
0.000182546
0.000148249
0.000135738
0.000137686
0.000140791
0.000143764
0.000154175
0.00018889
0.00027636
0.000461418
0.00081419
0.00146619
0.00275806
0.00558568
0.0124801
0.0267176
0.0159577
5.70856e-06
1.07114e-05
1.48709e-05
0.000289249
0.000203708
0.000169923
0.000165845
0.000165787
0.000165359
0.000172091
0.000203237
0.000287844
0.000472846
0.000832282
0.00149929
0.00278368
0.00550776
0.012102
0.0260272
0.0161671
4.25316e-06
7.42073e-06
1.0996e-05
0.00049701
0.000288154
0.000216776
0.000201914
0.000197205
0.00019229
0.000194214
0.000220797
0.000301182
0.000483455
0.000844165
0.00151905
0.00278477
0.0054213
0.0117575
0.0253631
0.0162479
3.04718e-06
5.6332e-06
1.73342e-05
0.000484794
0.000421168
0.000283533
0.000249446
0.000237129
0.00022595
0.000221556
0.000242455
0.000317484
0.000494676
0.000853133
0.00152598
0.00276886
0.00533132
0.0114523
0.0247709
0.016224
2.58053e-06
8.07714e-06
0.000103135
0.000933042
0.000634662
0.000382946
0.000314025
0.000288921
0.000268527
0.000255563
0.00026934
0.000338095
0.0005084
0.000860938
0.00152165
0.00274147
0.00524101
0.0111876
0.024274
0.0161247
3.28609e-06
2.10785e-05
0.000312674
0.00233082
0.00103724
0.000539132
0.000405115
0.000357879
0.00032343
0.000298401
0.000303023
0.000364429
0.000527696
0.00086908
0.00151066
0.00270696
0.00515295
0.0109619
0.0238804
0.0159791
5.50037e-06
0.000112923
0.00110676
0.00132747
0.00178879
0.000805818
0.000539689
0.00045246
0.000396124
0.000353483
0.000345698
0.000398873
0.000552941
0.000878145
0.00149841
0.00266983
0.00506972
0.0107722
0.0235878
0.0158118
1.96484e-05
0.000469172
0.000770235
0.00313712
0.00129893
0.000752238
0.000587114
0.000494861
0.000424943
0.000398592
0.000439904
0.000582298
0.000891104
0.00148967
0.00263486
0.00499432
0.0106155
0.0233885
0.0156414
9.92049e-05
0.000346031
0.0030066
0.00224597
0.00113325
0.000795979
0.000638984
0.000523648
0.000466868
0.000490327
0.000619619
0.000912138
0.00148877
0.00260721
0.00493034
0.0104893
0.0232728
0.0154806
0.00013179
0.00328192
0.00431701
0.00197708
0.00116139
0.000867287
0.000670249
0.000560796
0.000555255
0.000668292
0.000944797
0.00150018
0.00259211
0.00488207
0.0103924
0.0232313
0.0153362
0.00305222
0.00681584
0.00472853
0.00197521
0.00127048
0.000907713
0.000700763
0.00064276
0.00073207
0.000992496
0.00152824
0.00259502
0.00485456
0.0103255
0.0232567
0.0152107
0.00611313
0.0141068
0.00541994
0.00213103
0.00133088
0.00093203
0.000769662
0.000816538
0.00105872
0.00157723
0.00262154
0.00485362
0.0102913
0.0233458
0.0151037
0.0109083
0.0229205
0.00515276
0.00216977
0.00136042
0.000976488
0.000932897
0.00114743
0.00165118
0.00267725
0.00488567
0.0102947
0.0234993
0.0150124
0.018143
0.0223886
0.00412323
0.00224205
0.00136939
0.00111019
0.00126475
0.00175365
0.00276728
0.00495752
0.0103428
0.0237225
0.0149337
0.0168598
0.00915065
0.00424116
0.00223696
0.00143691
0.00142634
0.00188773
0.00289545
0.00507563
0.0104446
0.0240246
0.0148645
0.00500263
0.00891896
0.0043874
0.00220052
0.00169097
0.00205915
0.00306285
0.0052446
0.0106097
0.0244174
0.0148022
0.00496317
0.00979518
0.00433424
0.00230344
0.00229897
0.00326698
0.00546378
0.0108452
0.0249126
0.0147455
0.00567012
0.0101071
0.00423924
0.00278869
0.00351469
0.00572195
0.0111499
0.0255157
0.0146932
0.0061978
0.00975398
0.00441769
0.00392804
0.00599944
0.0115024
0.0262152
0.0146438
0.00661859
0.00905965
0.00528674
0.00635008
0.0118513
0.0269606
0.0145922
0.00727272
0.00896267
0.00740942
0.0121731
0.0276539
0.0145249
0.00837426
0.0104257
0.0129134
0.0283097
0.0144172
0.0104455
0.0152802
0.0300188
0.0142506
0.014374
0.0277353
0.0140759
0.020656
0.0128531
0.00951343
)
;

boundaryField
{
    floor
    {
        Cmu             0.09;
        kappa           0.41;
        E               9.8;
        type            epsilonWallFunction;
        value           nonuniform List<scalar> 
36
(
0.000146725
0.000160275
0.000189823
6.51785e-05
3.21406e-05
1.93387e-05
1.30985e-05
1.05454e-05
9.13917e-06
7.4331e-06
5.70856e-06
4.25316e-06
3.04718e-06
2.58053e-06
3.28609e-06
5.50037e-06
1.96484e-05
9.92049e-05
0.00013179
0.00013179
0.000346031
0.000770235
0.00132747
0.0030066
0.00328192
0.00305222
0.000146725
0.000313254
0.000449093
0.000342032
0.000160275
0.000342032
0.00047508
0.00066907
0.000814767
0.000893627
)
;
    }
    ceiling
    {
        Cmu             0.09;
        kappa           0.41;
        E               9.8;
        type            epsilonWallFunction;
        value           nonuniform List<scalar> 
43
(
0.00746299
0.0155245
0.0207593
0.0187711
0.0169373
0.0155341
0.0144197
0.0137515
0.0135323
0.0136778
0.0140757
0.0146019
0.0151423
0.0156108
0.0159577
0.0161671
0.0162479
0.016224
0.0161247
0.0159791
0.0158118
0.0156414
0.0154806
0.0153362
0.0152107
0.0151037
0.0150124
0.0149337
0.0148645
0.0148022
0.0147455
0.0146932
0.0146438
0.0145922
0.0145249
0.0144172
0.0142506
0.0140759
0.0128531
0.00951343
0.0582976
0.103493
0.178712
)
;
    }
    sWall
    {
        Cmu             0.09;
        kappa           0.41;
        E               9.8;
        type            epsilonWallFunction;
        value           nonuniform List<scalar> 9(0.0113998 0.0147251 0.0193325 0.0261115 0.0371208 0.0582976 0.0136578 0.00997323 0.00746299);
    }
    nWall
    {
        Cmu             0.09;
        kappa           0.41;
        E               9.8;
        type            epsilonWallFunction;
        value           nonuniform List<scalar> 
14
(
0.00305222
0.00611313
0.0109083
0.00500263
0.00496317
0.00567012
0.0061978
0.00661859
0.00727272
0.00837426
0.0104455
0.014374
0.020656
0.00951343
)
;
    }
    sideWalls
    {
        type            empty;
    }
    glass1
    {
        Cmu             0.09;
        kappa           0.41;
        E               9.8;
        type            epsilonWallFunction;
        value           nonuniform List<scalar> 9(6.07232e-05 0.000320635 0.00135412 0.00219296 0.00312457 0.00419619 0.00545986 0.00699066 0.00890515);
    }
    glass2
    {
        Cmu             0.09;
        kappa           0.41;
        E               9.8;
        type            epsilonWallFunction;
        value           nonuniform List<scalar> 2(0.018143 0.0168598);
    }
    sun
    {
        Cmu             0.09;
        kappa           0.41;
        E               9.8;
        type            epsilonWallFunction;
        value           nonuniform List<scalar> 
14
(
6.07232e-05
7.17159e-05
8.381e-05
9.83752e-05
0.000110465
0.000111888
0.000103753
0.000103069
0.000104213
0.000101958
9.50065e-05
8.66007e-05
8.25229e-05
9.04473e-05
)
;
    }
    Table_master
    {
        Cmu             0.09;
        kappa           0.41;
        E               9.8;
        type            epsilonWallFunction;
        value           nonuniform List<scalar> 9(0.000131337 8.09157e-05 5.42494e-05 3.82642e-05 2.77365e-05 2.03283e-05 1.48709e-05 1.0996e-05 1.73342e-05);
    }
    Table_slave
    {
        Cmu             0.09;
        kappa           0.41;
        E               9.8;
        type            epsilonWallFunction;
        value           nonuniform List<scalar> 9(0.000100384 5.23727e-05 3.72005e-05 5.37436e-05 8.12392e-05 0.000120777 0.000182546 0.000289249 0.00049701);
    }
    inlet
    {
        type            fixedValue;
        value           uniform 0.00082175;
    }
    outlet
    {
        type            zeroGradient;
    }
}


// ************************************************************************* //
