/*--------------------------------*- C++ -*----------------------------------*\
  =========                 |
  \\      /  F ield         | OpenFOAM: The Open Source CFD Toolbox
   \\    /   O peration     | Website:  https://openfoam.org
    \\  /    A nd           | Version:  6
     \\/     M anipulation  |
\*---------------------------------------------------------------------------*/
FoamFile
{
    version     2.0;
    format      ascii;
    class       volScalarField;
    location    "1500";
    object      nut;
}
// * * * * * * * * * * * * * * * * * * * * * * * * * * * * * * * * * * * * * //

dimensions      [0 2 -1 0 0 0 0];

internalField   nonuniform List<scalar> 
662
(
0.000959998
0.00103248
0.00104429
0.00109247
0.00113758
0.00118024
0.0012223
0.00126605
0.00131055
0.00135181
0.00138453
0.00139766
0.00137392
0.00129103
0.00107053
0.000469346
0.000553032
0.000618435
0.000629556
0.000614201
0.000575349
0.000533291
0.000495391
0.00046224
0.000433193
0.000407824
0.000385489
0.000365501
0.000347191
0.000329779
0.000312413
0.000306167
0.000284731
0.00133723
0.00273919
0.00242753
0.00278801
0.00311282
0.00345621
0.00379589
0.00409092
0.00436865
0.00469902
0.00506598
0.00541697
0.00566276
0.00565947
0.00497296
0.00124475
0.00102286
0.000839002
0.000476704
0.0010874
0.00154649
0.00190565
0.00201289
0.00150257
0.0012814
0.00112979
0.00101668
0.000929066
0.000855678
0.000790166
0.000729631
0.00067112
0.000620322
0.000574322
0.000720461
0.000392883
0.00167595
0.0038302
0.00274249
0.00358715
0.00389958
0.00409431
0.00421185
0.0042919
0.00440577
0.00463376
0.00499353
0.00547712
0.00600786
0.00637171
0.00627277
0.00513139
0.00403123
0.00097655
0.000779404
0.00129347
0.00180114
0.00229772
0.0024198
0.000773549
0.000678907
0.000601092
0.000538501
0.000488205
0.000447603
0.000414644
0.000387859
0.000366772
0.000405223
0.00046453
0.000846896
0.000471903
0.00201997
0.0053079
0.00271888
0.00369989
0.00405587
0.00405187
0.00390188
0.00374883
0.00371654
0.00385375
0.00419223
0.00476469
0.00549598
0.00607116
0.00632621
0.00611024
0.00531083
0.00290207
0.00114925
0.00156551
0.00212973
0.00274951
0.00324744
0.00319874
0.000857052
0.000784936
0.000738879
0.000707182
0.000681393
0.000654915
0.000627448
0.000598304
0.000563705
0.000535271
0.000533081
0.00102618
0.000543865
0.0023594
0.00696349
0.00352077
0.00335549
0.00394416
0.00398633
0.00372865
0.00339626
0.00324431
0.00332443
0.00364209
0.00426511
0.00509478
0.00566229
0.00594358
0.00597038
0.00568701
0.00469633
0.00437128
0.00430109
0.00445433
0.00464741
0.00473951
0.00459553
0.00386299
0.00352896
0.00336263
0.00324789
0.00312732
0.00296695
0.00268692
0.00230133
0.00185315
0.00141768
0.00106473
0.000990681
0.000930655
0.00073278
0.000763093
0.000827191
0.00274649
0.00849522
0.00539426
0.00348514
0.00338953
0.00359462
0.00362999
0.0033856
0.00311082
0.00314362
0.00344586
0.00409324
0.00490382
0.00541222
0.00561193
0.00561207
0.00558827
0.0055326
0.00567418
0.00584356
0.00591111
0.00583261
0.005622
0.00529887
0.00489036
0.00458101
0.00435421
0.00416186
0.00397597
0.00378249
0.00355594
0.00322349
0.00277904
0.00225378
0.00175017
0.00124185
0.00106846
0.00096698
0.00121664
0.000858726
0.00129047
0.00401859
0.00516189
0.00439501
0.00360623
0.00329393
0.00327566
0.00330415
0.00317852
0.00312525
0.00331237
0.00389869
0.0049552
0.0053727
0.00549391
0.00546248
0.00564305
0.00605154
0.00640699
0.00653649
0.00642086
0.00611122
0.00567995
0.0051962
0.00474655
0.00441583
0.00418229
0.00399706
0.00383543
0.00369105
0.0035656
0.00343721
0.00315539
0.00273451
0.00228406
0.00183254
0.00155568
0.00144489
0.00136794
0.00101476
0.00101741
0.00205116
0.00294364
0.00357319
0.00381785
0.00370918
0.00350034
0.0033444
0.00319501
0.00315407
0.00347078
0.00417844
0.00514619
0.00547728
0.00554913
0.00558936
0.00597907
0.00632327
0.00646103
0.00635417
0.00601846
0.00552402
0.00496805
0.00445213
0.00405726
0.00379606
0.00362166
0.00349531
0.00340443
0.00335135
0.00334462
0.0033878
0.0034097
0.00316362
0.00292736
0.00281178
0.00289924
0.00301256
0.00367313
0.00154001
0.000277086
0.0013609
0.00220598
0.00272999
0.00294926
0.00298926
0.00301671
0.00328126
0.00394749
0.00471387
0.00533578
0.00561238
0.00570392
0.00577131
0.00585495
0.00584296
0.00569553
0.00538025
0.00492307
0.00440922
0.00393665
0.00356843
0.0033125
0.00313733
0.00300696
0.0029009
0.00281081
0.00273247
0.00266142
0.00259222
0.00252739
0.00247241
0.00243706
0.00241807
0.00236694
0.00225178
0.00209842
0.00144318
0.000592291
0.000689767
0.00131755
0.00198132
0.00247973
0.00286844
0.00334515
0.00407399
0.00482544
0.00514223
0.00517683
0.00564539
0.00561061
0.00537438
0.0050794
0.00480055
0.00450848
0.00417178
0.00381215
0.00347869
0.0032063
0.00299985
0.00284482
0.00272348
0.00262371
0.00254027
0.0024724
0.00242225
0.0023945
0.00239481
0.00241664
0.00244598
0.00247627
0.00249066
0.00246704
0.00240105
0.0021434
0.00120127
0.00105424
0.00260856
0.00130762
0.00119649
0.00184396
0.00259906
0.00328778
0.00397621
0.0046189
0.00501379
0.00506649
0.00442686
0.00397161
0.00434599
0.00430045
0.00408915
0.00387235
0.00366186
0.0034479
0.00322797
0.0030146
0.00282203
0.00265741
0.00252144
0.00241284
0.00233153
0.00227868
0.00225476
0.00225738
0.00227997
0.00231743
0.00238183
0.00246456
0.00255576
0.00264162
0.00270748
0.00276204
0.00285719
0.00193036
0.00124651
0.000821815
0.00186277
0.00251254
0.00299714
0.00340833
0.00374265
0.0039712
0.00404968
0.00391153
0.00361117
0.00295844
0.00163569
0.000839008
0.00083004
0.000815286
0.000797027
0.000779802
0.000764166
0.00074908
0.000735591
0.000725095
0.000718685
0.000716965
0.000720199
0.000728491
0.000741896
0.000760475
0.000784392
0.000814081
0.000850564
0.000894982
0.000945931
0.00100367
0.00106781
0.00113744
0.00121213
0.00125333
0.00114203
0.00106709
0.00120337
0.00215368
0.00545215
0.00504297
0.00397937
0.00340429
0.00327276
0.00330272
0.00324319
0.00313748
0.0031763
0.00355896
0.00430051
0.00160132
0.00257563
0.00328826
0.00375353
0.00379142
0.00360315
0.0034138
0.00326801
0.00314624
0.00325454
0.00379304
0.00456942
0.000878237
0.00181813
0.0025107
0.00287112
0.00298259
0.00299212
0.0031012
0.00357102
0.00435109
0.0049996
0.000511736
0.000975263
0.00166466
0.00225236
0.00267747
0.00308236
0.00368379
0.00447422
0.00505824
0.00516073
0.00288642
0.00214263
0.00102557
0.00150259
0.0022425
0.0029458
0.00363162
0.00431237
0.004849
0.00510426
0.00483051
0.00416365
0.00198605
0.00217907
0.00280475
0.00320888
0.00358945
0.00387097
0.00403616
0.00400713
0.00377839
0.00335779
0.00236552
0.00110548
0.00134693
0.00269265
0.00398784
0.00432974
0.00403844
0.00362417
0.00337758
0.00329942
0.0031988
0.0031407
0.00336423
0.00400103
0.00107348
0.00117992
0.00159822
0.00237997
0.00302652
0.00330545
0.00331608
0.00322556
0.00312064
0.00318021
0.00365328
0.00442235
0.000481307
0.000806698
0.00159551
0.00223782
0.00261613
0.00281374
0.00303406
0.00356216
0.00436488
0.00499288
0.000488756
0.000780807
0.00138188
0.00206334
0.00267995
0.00328443
0.00397872
0.00466739
0.00513426
0.00499913
0.00106309
0.00246354
0.00206543
0.00212555
0.00274705
0.00338894
0.0039639
0.00446683
0.00476506
0.00479394
0.00442694
0.00330841
0.000974088
0.000898119
0.000951495
0.00098801
0.000983765
0.000943079
0.000870699
0.000766788
0.000650173
0.000553259
0.00045736
0.000390715
0.00186285
0.00356686
0.00428169
0.00423461
0.0038198
0.00347332
0.00332473
0.0032542
0.00315211
0.00320115
0.00363951
0.00440346
0.00109542
0.00119864
0.00198141
0.00274545
0.00320999
0.00333281
0.00327583
0.00316982
0.00311113
0.0033593
0.00402787
0.00477876
0.000479437
0.00120051
0.00194868
0.00245779
0.00272804
0.00290072
0.00325049
0.00395078
0.004731
0.00515572
0.000554816
0.00105886
0.0017256
0.00238062
0.00297505
0.00362235
0.00433346
0.00495105
0.00515163
0.00485092
0.00277018
0.0023748
0.00197163
0.00242406
0.00308256
0.00368221
0.00423845
0.00464375
0.00481579
0.00469177
0.00393491
0.00295279
0.000874067
0.000928206
0.00097209
0.000991349
0.000967445
0.000910926
0.000822218
0.00070764
0.000599042
0.000507581
0.000410477
0.0003992
)
;

boundaryField
{
    floor
    {
        type            nutkWallFunction;
        Cmu             0.09;
        kappa           0.41;
        E               9.8;
        value           nonuniform List<scalar> 
36
(
0.000128981
5.57873e-05
6.64542e-05
7.46514e-05
7.60345e-05
7.41241e-05
6.92639e-05
6.3957e-05
5.91305e-05
5.48712e-05
5.11075e-05
4.77943e-05
4.48557e-05
4.22073e-05
3.97649e-05
3.74267e-05
3.50787e-05
3.423e-05
3.12992e-05
3.12991e-05
4.58305e-05
5.6116e-05
6.52952e-05
8.8738e-05
9.24267e-05
0.000100172
0.000128981
0.000149138
0.000123402
0.00010159
5.57872e-05
0.00010159
5.67339e-05
0.000117955
9.44054e-05
0.000138132
)
;
    }
    ceiling
    {
        type            nutkWallFunction;
        Cmu             0.09;
        kappa           0.41;
        E               9.8;
        value           nonuniform List<scalar> 
58
(
0.000105777
0.000112217
0.000117405
0.000119676
0.000116863
0.000110174
9.95699e-05
8.56667e-05
7.22352e-05
6.06903e-05
4.81455e-05
4.66658e-05
0.000101593
0.000100516
9.87401e-05
9.65376e-05
9.44544e-05
9.25586e-05
9.0725e-05
8.90819e-05
8.78008e-05
8.70173e-05
8.68069e-05
8.72022e-05
8.8215e-05
8.98495e-05
9.21094e-05
9.50088e-05
9.85937e-05
0.000102978
0.000108287
0.000114338
0.000121151
0.000128667
0.000136768
0.000145397
0.000150129
0.000137301
0.000128583
0.00014439
0.000131927
0.000143877
5.83922e-05
9.95186e-05
0.000108643
0.000114973
0.000119281
0.000118785
0.000113985
0.000105381
9.2875e-05
7.8593e-05
6.64856e-05
5.42438e-05
4.55491e-05
0.000122809
0.000141721
7.1445e-05
)
;
    }
    sWall
    {
        type            nutkWallFunction;
        Cmu             0.09;
        kappa           0.41;
        E               9.8;
        value           nonuniform List<scalar> 4(0.000128092 0.00011765 0.000127057 9.95216e-05);
    }
    nWall
    {
        type            nutkWallFunction;
        Cmu             0.09;
        kappa           0.41;
        E               9.8;
        value           nonuniform List<scalar> 6(0.000100173 0.000103958 0.00012246 0.000144157 0.00014936 0.0001444);
    }
    sideWalls
    {
        type            empty;
    }
    glass1
    {
        type            nutkWallFunction;
        Cmu             0.09;
        kappa           0.41;
        E               9.8;
        value           nonuniform List<scalar> 10(0.00011607 0.000159906 0.000198065 0.000235956 0.000272661 0.000313843 0.000160978 0.000129438 0.000154536 0.000122854);
    }
    glass2
    {
        type            nutkWallFunction;
        Cmu             0.09;
        kappa           0.41;
        E               9.8;
        value           nonuniform List<scalar> 2(0.000182705 0.000171806);
    }
    sun
    {
        type            nutkWallFunction;
        Cmu             0.09;
        kappa           0.41;
        E               9.8;
        value           nonuniform List<scalar> 
14
(
0.000116003
0.000124531
0.000125915
0.000131539
0.00013678
0.000141715
0.00014656
0.000151581
0.000156668
0.000161366
0.00016508
0.000166568
0.000163876
0.000154438
)
;
    }
    Table_master
    {
        type            nutkWallFunction;
        Cmu             0.09;
        kappa           0.41;
        E               9.8;
        value           nonuniform List<scalar> 9(9.36966e-05 8.21393e-05 7.24923e-05 6.46229e-05 5.8218e-05 5.29878e-05 4.86986e-05 4.51811e-05 4.23901e-05);
    }
    Table_slave
    {
        type            nutkWallFunction;
        Cmu             0.09;
        kappa           0.41;
        E               9.8;
        value           nonuniform List<scalar> 9(0.000103755 9.50755e-05 8.94833e-05 8.56107e-05 8.24447e-05 7.91792e-05 7.57748e-05 7.21429e-05 6.78031e-05);
    }
    inlet
    {
        type            calculated;
        value           uniform 0.000167705;
    }
    outlet
    {
        type            calculated;
        value           nonuniform List<scalar> 4(0.00288642 0.00214263 0.00106309 0.00260856);
    }
}


// ************************************************************************* //
