/*--------------------------------*- C++ -*----------------------------------*\
  =========                 |
  \\      /  F ield         | OpenFOAM: The Open Source CFD Toolbox
   \\    /   O peration     | Website:  https://openfoam.org
    \\  /    A nd           | Version:  6
     \\/     M anipulation  |
\*---------------------------------------------------------------------------*/
FoamFile
{
    version     2.0;
    format      ascii;
    class       volScalarField;
    location    "1500";
    object      nut;
}
// * * * * * * * * * * * * * * * * * * * * * * * * * * * * * * * * * * * * * //

dimensions      [0 2 -1 0 0 0 0];

internalField   nonuniform List<scalar> 
778
(
0.000555659
0.000587347
0.000967586
0.00061867
0.00107863
0.00156396
0.000652615
0.00123784
0.0016383
0.00183666
0.00067832
0.00155985
0.00152416
0.00218259
0.00206677
0.000681209
0.00227171
0.00157131
0.00197726
0.00280833
0.00228028
0.000664311
0.00293794
0.00204775
0.00179065
0.00256326
0.00341998
0.00248946
0.000662865
0.00326415
0.00286842
0.00196717
0.002154
0.00320464
0.00395075
0.00270327
0.000665313
0.00364923
0.00389488
0.00264691
0.00204715
0.00259631
0.00382678
0.00435315
0.00293046
0.000660477
0.00397541
0.00466957
0.00370428
0.00252734
0.00223041
0.00305499
0.00437453
0.00461002
0.00318193
0.00064511
0.00416203
0.00539408
0.00487042
0.00359999
0.0025285
0.0024554
0.00347897
0.00482163
0.00470425
0.00346534
0.000625494
0.00410852
0.0059172
0.00580463
0.00496163
0.00367559
0.00263147
0.00267289
0.00382886
0.00513297
0.00470588
0.00379452
0.000615521
0.00370795
0.00612731
0.0065819
0.00610808
0.00525696
0.00398513
0.00283524
0.00285244
0.00406387
0.00538041
0.00463717
0.00419443
0.00063463
0.00288092
0.00596325
0.00701858
0.00700177
0.00663129
0.00588027
0.0045972
0.00320425
0.00303812
0.00412606
0.00560226
0.00461654
0.0047163
0.000745692
0.00195535
0.00542152
0.00703707
0.00753402
0.00756153
0.00736169
0.00678031
0.00555712
0.00393635
0.00341021
0.00417992
0.00570622
0.00509794
0.00548209
0.00169635
0.00449982
0.00665628
0.00760793
0.00808044
0.00829931
0.00833381
0.00782578
0.00664892
0.00500841
0.00411919
0.0043947
0.00385468
0.00663793
0.000960198
0.00357968
0.00590416
0.00724965
0.00810612
0.0087406
0.00912537
0.00921145
0.00874605
0.00773556
0.00632925
0.00530337
0.00437385
0.00757392
0.00108269
0.00328228
0.0049557
0.00655595
0.00768398
0.00866487
0.00942484
0.00986407
0.00989075
0.00946896
0.00871461
0.00776931
0.00682383
0.00283846
0.0133613
0.000988731
0.00312785
0.00380631
0.00561479
0.00695838
0.00817069
0.00922273
0.00998992
0.0103664
0.0102985
0.00996323
0.00951765
0.00906177
0.00655623
0.00578506
0.00796368
0.00123657
0.00269333
0.0043677
0.00605498
0.00746364
0.00867452
0.00965732
0.010298
0.0105203
0.0104199
0.010187
0.00997694
0.00936665
0.00348037
0.00669939
0.00748344
0.00264402
0.00287484
0.0050266
0.00671123
0.00801697
0.00907716
0.00983974
0.0102453
0.0103279
0.0101843
0.00995245
0.00961477
0.00800677
0.00610574
0.00748495
0.00650023
0.00601628
0.0013618
0.00230575
0.00402857
0.00599955
0.00740411
0.00848027
0.00925765
0.00970963
0.00986292
0.00974657
0.00941839
0.0089562
0.00839331
0.0079414
0.00814864
0.00603151
0.00337917
0.00543381
0.00388553
0.00278027
0.0030173
0.00354117
0.00542222
0.00688946
0.00797761
0.00875004
0.0091998
0.00935783
0.00923002
0.00883292
0.00829261
0.00799285
0.00852242
0.00923636
0.00676356
0.00375732
0.00304297
0.00352677
0.00132049
0.00247965
0.00277502
0.00361523
0.00511494
0.00649626
0.00758299
0.0083724
0.00884652
0.00903424
0.00894327
0.00858376
0.00811473
0.00801603
0.00892175
0.0104963
0.00772378
0.00363075
0.00276267
0.00110316
0.00359145
0.00222298
0.00298966
0.00383298
0.00506087
0.00623927
0.00728011
0.00810503
0.0086449
0.00891162
0.00892301
0.00869203
0.0083833
0.00847847
0.00957212
0.0114348
0.00886842
0.00352759
0.000767953
0.00306302
0.00250401
0.00213009
0.00309617
0.0040211
0.00507155
0.00607418
0.00704815
0.00791539
0.00854842
0.00892856
0.00908145
0.00901962
0.00889186
0.00914686
0.0103384
0.0122437
0.0101487
0.00344114
0.000812509
0.00212379
0.00206969
0.00197101
0.00303692
0.00402045
0.00498899
0.00591003
0.00685587
0.00777775
0.00851563
0.00902399
0.00933271
0.00945028
0.00949437
0.00986824
0.0110745
0.0129627
0.0114341
0.00338715
0.000568955
0.00175404
0.00177087
0.000657112
0.00268054
0.00378718
0.00477731
0.00571333
0.00668443
0.0076726
0.00851836
0.00915579
0.00961876
0.00991161
0.0101148
0.0105671
0.0117432
0.0135831
0.0126013
0.00336906
0.0004495
0.00154186
0.000718645
0.000529037
0.0020466
0.00343545
0.00452014
0.00551472
0.00653168
0.00758826
0.00853848
0.00929777
0.00990383
0.0103599
0.0107082
0.0112226
0.0123211
0.0140946
0.0135708
0.00338109
0.000379486
0.00128015
0.000611502
0.0004719
0.00187037
0.00315238
0.00432363
0.00536428
0.00641231
0.0075224
0.00856513
0.00943428
0.0101668
0.010769
0.0112468
0.0118099
0.0128167
0.0144931
0.0143143
0.00341358
0.000333274
0.001112
0.000535206
0.000533371
0.00183069
0.00307874
0.00423643
0.00529201
0.0063432
0.0074785
0.00859303
0.00955626
0.0103963
0.0111237
0.0117162
0.0123108
0.0132322
0.0147934
0.0148418
0.0034556
0.000310042
0.000983982
0.00047642
0.000612153
0.00197097
0.00314313
0.00427378
0.00530596
0.00633211
0.00746124
0.00862033
0.00965884
0.0105864
0.0114182
0.012106
0.0127313
0.0135709
0.0150093
0.015186
0.00349771
0.000295604
0.000847777
0.00042797
0.000698684
0.00215662
0.00331648
0.00440953
0.00540121
0.00637887
0.00747331
0.00864699
0.00973958
0.0107343
0.0116501
0.0124176
0.0130616
0.0138389
0.0151556
0.015389
0.00353342
0.000275938
0.000701769
0.000385864
0.000801843
0.00232741
0.00352003
0.00461355
0.0055615
0.00647751
0.00751494
0.00867375
0.00979714
0.0108404
0.0118177
0.0126538
0.013311
0.0140397
0.0152461
0.0154919
0.00355941
0.000252702
0.00055685
0.000347684
0.000934835
0.00249432
0.0037163
0.00484513
0.0057654
0.00661676
0.00758349
0.00870153
0.00983104
0.0109041
0.011926
0.0128076
0.0134903
0.0141811
0.0152929
0.0155303
0.0035749
0.000229093
0.000426419
0.000314403
0.00111973
0.00266604
0.00390784
0.00508452
0.00598999
0.00678173
0.007673
0.00873059
0.00984169
0.0109248
0.0119761
0.0128927
0.0136014
0.0142704
0.0153061
0.0155314
0.00358085
0.000204997
0.000339158
0.00036586
0.00266172
0.00285613
0.00410104
0.00533013
0.00622134
0.00695663
0.00777455
0.00875976
0.00982956
0.0109036
0.0119654
0.0129132
0.013649
0.0143113
0.0152939
0.0155148
0.00357909
0.000193934
0.000347636
0.00146073
0.00337823
0.00309875
0.00430721
0.00558422
0.00645279
0.00712848
0.00787761
0.00878612
0.00979502
0.0108412
0.0118975
0.0128689
0.0136358
0.0143072
0.0152614
0.0154929
0.00357178
0.000210189
0.0006905
0.00244473
0.00456044
0.00324093
0.00454932
0.0058517
0.00667974
0.00728681
0.0079715
0.00880531
0.00973878
0.0107357
0.0117764
0.0127616
0.0135638
0.0142608
0.0152112
0.0154725
0.003561
0.000249577
0.00145067
0.00365653
0.00155378
0.00333918
0.00485783
0.00613288
0.00688913
0.00742248
0.00804635
0.00881198
0.00966088
0.0105919
0.0116032
0.012594
0.0134356
0.0141737
0.0151436
0.0154558
0.00354852
0.000381508
0.00235956
0.00129593
0.00332325
0.00527933
0.00639835
0.00705425
0.00750424
0.00807036
0.00878718
0.00955935
0.0104119
0.0113825
0.0123736
0.0132556
0.0140473
0.0150577
0.0154418
0.00353573
0.000654493
0.000992558
0.00204052
0.00579293
0.00664841
0.00719656
0.00754827
0.00805279
0.00873411
0.00944342
0.010209
0.0111235
0.0121076
0.0130294
0.0138835
0.0149516
0.0154277
0.00352356
0.000719476
0.00210101
0.00665311
0.00694003
0.00732546
0.00756967
0.00800133
0.0086595
0.00932882
0.0100018
0.0108418
0.0118066
0.0127638
0.0136847
0.014823
0.0154097
0.00351257
0.00205082
0.00645505
0.00775809
0.00744385
0.00758405
0.00793123
0.00856313
0.00922699
0.00981092
0.0105554
0.011484
0.0124668
0.0134541
0.0146701
0.0153836
0.00350297
0.0025851
0.00956893
0.00795144
0.0076161
0.00787747
0.00844817
0.00914156
0.00965752
0.010284
0.0111545
0.0121483
0.0131957
0.0144915
0.0153458
0.00349473
0.00313553
0.0110485
0.00802354
0.00791069
0.0083482
0.00906445
0.00956428
0.01005
0.0108339
0.0118191
0.0129146
0.0142867
0.0152932
0.00348768
0.00371505
0.0107623
0.00819476
0.00837435
0.0089894
0.00954743
0.00988431
0.01054
0.0114909
0.0126171
0.0140564
0.0152236
0.00348157
0.00362538
0.0085653
0.00872752
0.00900441
0.00959094
0.00983251
0.0102961
0.0111761
0.0123104
0.0138031
0.0151355
0.00347618
0.00241803
0.00924975
0.00942534
0.00967347
0.00994208
0.0101429
0.0108895
0.0120025
0.0135306
0.015028
0.00347132
0.00241164
0.0101935
0.0100875
0.0101881
0.0101549
0.0106561
0.0117026
0.0132439
0.0149002
0.00346688
0.00252111
0.0108692
0.0106281
0.010412
0.0105311
0.0114233
0.0129485
0.0147504
0.00346278
0.00259701
0.0111273
0.0109002
0.0106239
0.0111917
0.0126492
0.0145743
0.00345889
0.0026545
0.0109349
0.0109949
0.011077
0.0123512
0.0143638
0.00345482
0.00273921
0.0106504
0.0111585
0.0120617
0.0141065
0.00344951
0.00287105
0.0106026
0.0117577
0.0137873
0.00344095
0.00309053
0.0111012
0.0133604
0.00342765
0.00343753
0.0118738
0.00341359
0.00387912
0.00331173
0.0029957
)
;

boundaryField
{
    floor
    {
        type            nutkWallFunction;
        Cmu             0.09;
        kappa           0.41;
        E               9.8;
        value           nonuniform List<scalar> 
36
(
9.02926e-05
9.30092e-05
9.84118e-05
6.83868e-05
5.31146e-05
4.39327e-05
3.77559e-05
3.46095e-05
3.26382e-05
2.99329e-05
2.67039e-05
2.33827e-05
1.99453e-05
1.83505e-05
2.06929e-05
2.62681e-05
4.42005e-05
7.90779e-05
8.70885e-05
8.70885e-05
0.000119911
0.000155185
0.00018445
0.000238358
0.000244951
0.000239484
9.02926e-05
0.000116088
0.000130512
0.000119465
9.30092e-05
0.000119465
0.000132896
0.000148372
0.000157999
0.000162723
)
;
    }
    ceiling
    {
        type            nutkWallFunction;
        Cmu             0.09;
        kappa           0.41;
        E               9.8;
        value           nonuniform List<scalar> 
43
(
0.000315941
0.000395696
0.000432512
0.000419392
0.000406397
0.00039577
0.00038684
0.000381251
0.000379375
0.000380619
0.000383978
0.000388321
0.000392667
0.000396348
0.000399023
0.000400616
0.000401226
0.000401042
0.000400286
0.000399172
0.000397884
0.000396563
0.000395306
0.00039417
0.000393177
0.000392324
0.000391594
0.000390962
0.000390403
0.000389899
0.000389439
0.000389013
0.00038861
0.000388188
0.000387637
0.000386752
0.000385374
0.000383919
0.000373364
0.000340406
0.000592573
0.000705588
0.000833083
)
;
    }
    sWall
    {
        type            nutkWallFunction;
        Cmu             0.09;
        kappa           0.41;
        E               9.8;
        value           nonuniform List<scalar> 9(0.000359963 0.000389369 0.000423221 0.000463951 0.000516531 0.000592672 0.000380535 0.000345519 0.000316021);
    }
    nWall
    {
        type            nutkWallFunction;
        Cmu             0.09;
        kappa           0.41;
        E               9.8;
        value           nonuniform List<scalar> 
14
(
0.000239486
0.000297032
0.000355026
0.000279185
0.000278503
0.000290214
0.000298305
0.000304416
0.000313396
0.000327315
0.000350342
0.00038641
0.000431785
0.00034043
)
;
    }
    sideWalls
    {
        type            empty;
    }
    glass1
    {
        type            nutkWallFunction;
        Cmu             0.09;
        kappa           0.41;
        E               9.8;
        value           nonuniform List<scalar> 9(6.66522e-05 0.000116996 0.000185707 0.000216076 0.000241319 0.000264473 0.000286935 0.000309691 0.000333666);
    }
    glass2
    {
        type            nutkWallFunction;
        Cmu             0.09;
        kappa           0.41;
        E               9.8;
        value           nonuniform List<scalar> 2(0.000414746 0.000405538);
    }
    sun
    {
        type            nutkWallFunction;
        Cmu             0.09;
        kappa           0.41;
        E               9.8;
        value           nonuniform List<scalar> 
14
(
6.6698e-05
7.06937e-05
7.46168e-05
7.88417e-05
8.2024e-05
8.23818e-05
8.02901e-05
8.01093e-05
8.04121e-05
7.98134e-05
7.79072e-05
7.54658e-05
7.42209e-05
7.66036e-05
)
;
    }
    Table_master
    {
        type            nutkWallFunction;
        Cmu             0.09;
        kappa           0.41;
        E               9.8;
        value           nonuniform List<scalar> 9(8.69792e-05 7.3708e-05 6.40869e-05 5.65592e-05 5.0268e-05 4.47275e-05 3.96367e-05 3.51404e-05 4.20757e-05);
    }
    Table_slave
    {
        type            nutkWallFunction;
        Cmu             0.09;
        kappa           0.41;
        E               9.8;
        value           nonuniform List<scalar> 9(7.9381e-05 6.32859e-05 5.59678e-05 6.38577e-05 7.37972e-05 8.4537e-05 9.71354e-05 0.0001131 0.000134866);
    }
    inlet
    {
        type            calculated;
        value           uniform 0.00591667;
    }
    outlet
    {
        type            calculated;
        value           nonuniform List<scalar> 2(0.00337917 0.00650023);
    }
}


// ************************************************************************* //
