/*--------------------------------*- C++ -*----------------------------------*\
  =========                 |
  \\      /  F ield         | OpenFOAM: The Open Source CFD Toolbox
   \\    /   O peration     | Website:  https://openfoam.org
    \\  /    A nd           | Version:  6
     \\/     M anipulation  |
\*---------------------------------------------------------------------------*/
FoamFile
{
    version     2.0;
    format      ascii;
    class       volScalarField;
    location    "1500";
    object      T;
}
// * * * * * * * * * * * * * * * * * * * * * * * * * * * * * * * * * * * * * //

dimensions      [0 0 0 1 0 0 0];

internalField   nonuniform List<scalar> 
778
(
302.523
302.214
302.195
302.187
302.181
302.174
302.168
302.161
302.155
302.147
302.139
302.128
302.115
302.102
302.089
302.146
302.068
302.059
302.061
302.066
302.073
302.081
302.089
302.097
302.105
302.114
302.122
302.131
302.14
302.149
302.16
302.175
302.215
302.729
302.25
302.218
302.216
302.216
302.215
302.212
302.208
302.203
302.195
302.181
302.161
302.134
302.102
302.07
302.051
302.04
302.039
302.065
302.034
302.025
302.024
302.026
302.031
302.035
302.04
302.046
302.051
302.057
302.062
302.069
302.077
302.089
302.105
302.128
302.188
302.941
302.3
302.251
302.258
302.27
302.28
302.288
302.292
302.292
302.286
302.269
302.24
302.196
302.143
302.09
302.049
302.021
302.007
301.999
301.998
302.001
302.005
302.009
302.014
302.018
302.023
302.028
302.033
302.038
302.043
302.049
302.055
302.064
302.08
302.104
302.173
303.15
302.363
302.287
302.302
302.327
302.352
302.374
302.391
302.401
302.401
302.383
302.341
302.276
302.196
302.118
302.056
302.013
301.99
301.986
301.983
301.987
301.994
302.001
302.007
302.011
302.015
302.019
302.022
302.025
302.028
302.031
302.035
302.039
302.05
302.065
302.09
302.161
303.353
302.439
302.325
302.343
302.38
302.419
302.458
302.493
302.519
302.527
302.508
302.454
302.363
302.25
302.141
302.057
302.003
301.979
301.972
301.975
301.984
301.996
302.006
302.015
302.022
302.028
302.032
302.036
302.039
302.042
302.044
302.046
302.047
302.051
302.06
302.08
302.137
302.152
302.174
302.281
303.545
302.526
302.365
302.376
302.421
302.472
302.525
302.577
302.62
302.639
302.624
302.555
302.434
302.289
302.149
302.05
301.991
301.965
301.961
301.971
301.987
302.004
302.019
302.031
302.04
302.046
302.05
302.054
302.056
302.058
302.058
302.058
302.057
302.057
302.061
302.074
302.111
302.128
302.148
302.291
303.713
302.623
302.416
302.404
302.449
302.504
302.562
302.622
302.678
302.712
302.703
302.62
302.47
302.298
302.144
302.033
301.97
301.948
301.952
301.971
301.995
302.019
302.038
302.053
302.063
302.069
302.073
302.075
302.075
302.075
302.073
302.071
302.068
302.065
302.065
302.072
302.095
302.112
302.134
302.271
303.874
302.769
302.514
302.443
302.47
302.519
302.574
302.633
302.695
302.742
302.733
302.638
302.471
302.279
302.112
301.997
301.94
301.928
301.945
301.977
302.011
302.042
302.066
302.082
302.092
302.097
302.099
302.098
302.095
302.092
302.088
302.083
302.079
302.074
302.072
302.074
302.088
302.104
302.147
302.452
304.082
303.208
302.83
302.597
302.527
302.543
302.585
302.637
302.711
302.766
302.745
302.624
302.429
302.219
302.048
301.943
301.902
301.91
301.947
301.993
302.038
302.074
302.099
302.115
302.122
302.124
302.123
302.118
302.113
302.107
302.101
302.094
302.088
302.082
302.078
302.078
302.088
302.114
302.196
302.61
304.069
303.507
303.144
302.865
302.71
302.656
302.659
302.706
302.78
302.813
302.746
302.571
302.338
302.116
301.955
301.875
301.865
301.902
301.961
302.023
302.075
302.113
302.135
302.146
302.149
302.147
302.142
302.135
302.127
302.119
302.111
302.103
302.096
302.09
302.085
302.084
302.1
302.205
302.359
302.611
304.075
303.643
303.338
303.095
302.936
302.856
302.838
302.869
302.903
302.864
302.707
302.455
302.184
301.966
301.84
301.805
301.84
301.912
301.995
302.068
302.121
302.154
302.168
302.172
302.169
302.162
302.154
302.145
302.136
302.127
302.119
302.11
302.103
302.096
302.091
302.093
302.138
302.283
302.421
302.62
304.11
303.735
303.479
303.282
303.147
303.071
303.047
303.05
303.004
302.84
302.557
302.231
301.953
301.779
301.72
301.753
301.843
301.951
302.051
302.126
302.17
302.189
302.192
302.187
302.18
302.171
302.161
302.152
302.142
302.133
302.124
302.116
302.108
302.102
302.098
302.113
302.199
302.356
302.482
302.641
304.181
303.858
303.623
303.451
303.334
303.264
303.225
303.153
302.951
302.608
302.209
301.866
301.652
301.582
301.629
301.747
301.892
302.027
302.128
302.189
302.211
302.213
302.206
302.197
302.186
302.176
302.166
302.156
302.147
302.138
302.13
302.122
302.115
302.109
302.109
302.135
302.239
302.406
302.536
302.668
304.122
303.874
303.671
303.537
303.429
303.341
303.238
302.951
302.494
301.997
301.601
301.385
301.347
301.445
301.622
301.819
302.001
302.136
302.211
302.237
302.238
302.23
302.218
302.206
302.194
302.183
302.172
302.163
302.154
302.146
302.138
302.131
302.126
302.122
302.125
302.151
302.241
302.396
302.522
302.656
304.268
304.078
303.605
303.277
303.054
302.841
302.459
301.838
301.273
300.93
300.84
300.954
301.188
301.47
301.753
301.985
302.16
302.241
302.27
302.272
302.263
302.25
302.236
302.223
302.21
302.198
302.187
302.177
302.168
302.161
302.155
302.152
302.151
302.152
302.159
302.18
302.242
302.378
302.482
302.596
294.584
296.238
297.733
298.427
298.659
298.959
299.379
299.881
300.408
300.919
301.362
301.729
302.031
302.199
302.285
302.315
302.318
302.31
302.298
302.286
302.273
302.26
302.247
302.234
302.222
302.212
302.204
302.199
302.198
302.2
302.208
302.218
302.232
302.251
302.289
302.383
302.462
302.573
294.914
295.625
296.382
297.152
297.975
298.829
299.644
300.356
300.962
301.492
301.863
302.112
302.269
302.345
302.373
302.378
302.373
302.365
302.358
302.351
302.342
302.333
302.322
302.309
302.296
302.284
302.276
302.273
302.275
302.284
302.3
302.321
302.345
302.37
302.399
302.443
302.494
302.596
300.09
299.003
297.607
296.85
297.554
298.61
299.584
300.349
300.919
301.386
301.764
302.055
302.25
302.365
302.422
302.443
302.447
302.446
302.443
302.442
302.442
302.441
302.44
302.435
302.428
302.416
302.402
302.388
302.377
302.371
302.371
302.38
302.397
302.422
302.453
302.488
302.525
302.561
302.588
302.645
300.472
300.348
299.776
299.27
299.611
300.338
301.002
301.5
301.853
302.104
302.28
302.398
302.466
302.5
302.513
302.516
302.516
302.518
302.52
302.525
302.53
302.535
302.538
302.537
302.531
302.521
302.507
302.492
302.479
302.469
302.466
302.469
302.479
302.497
302.52
302.546
302.573
302.598
302.624
302.708
301.173
301.194
301.265
301.357
301.513
301.821
302.104
302.304
302.433
302.513
302.56
302.586
302.598
302.602
302.602
302.602
302.602
302.605
302.61
302.617
302.625
302.63
302.633
302.632
302.627
302.618
302.608
302.596
302.586
302.58
302.577
302.579
302.586
302.598
302.615
302.637
302.663
302.689
302.711
302.759
)
;

boundaryField
{
    floor
    {
        type            wallHeatTransfer;
        Tinf            uniform 305.2;
        alphaWall       uniform 0.36;
        value           nonuniform List<scalar> 
36
(
302.455
302.764
302.594
302.572
302.582
302.603
302.632
302.662
302.693
302.723
302.753
302.781
302.809
302.836
302.863
302.891
302.922
302.955
303.033
303.033
302.905
302.839
302.793
302.733
302.666
302.766
302.455
302.396
302.405
302.426
302.764
302.426
302.535
302.336
302.377
302.318
)
;
    }
    ceiling
    {
        type            wallHeatTransfer;
        Tinf            uniform 303.2;
        alphaWall       uniform 0.36;
        value           nonuniform List<scalar> 
43
(
301.335
301.377
301.444
301.524
301.664
301.949
302.212
302.4
302.521
302.598
302.646
302.674
302.688
302.694
302.696
302.695
302.695
302.697
302.701
302.705
302.71
302.714
302.714
302.712
302.706
302.697
302.686
302.675
302.665
302.657
302.653
302.653
302.658
302.666
302.679
302.697
302.718
302.74
302.757
302.802
304.179
304.006
295.866
)
;
    }
    sWall
    {
        type            wallHeatTransfer;
        Tinf            uniform 315.2;
        alphaWall       uniform 0.54;
        value           nonuniform List<scalar> 9(305.094 305.152 305.265 305.416 305.361 305.592 301.669 302.08 302.794);
    }
    nWall
    {
        type            wallHeatTransfer;
        Tinf            uniform 308.2;
        alphaWall       uniform 0.54;
        value           nonuniform List<scalar> 
14
(
303.645
303.483
303.336
303.355
303.364
303.396
303.435
303.419
303.329
303.3
303.321
303.391
303.45
303.51
)
;
    }
    sideWalls
    {
        type            empty;
    }
    glass1
    {
        type            wallHeatTransfer;
        Tinf            uniform 315.2;
        alphaWall       uniform 4.3;
        value           nonuniform List<scalar> 9(311.433 310.684 310.21 309.851 309.566 309.334 309.126 308.986 309.033);
    }
    glass2
    {
        type            wallHeatTransfer;
        Tinf            uniform 308.2;
        alphaWall       uniform 4.3;
        value           nonuniform List<scalar> 2(305.805 305.724);
    }
    sun
    {
        type            wallHeatTransfer;
        Tinf            uniform 305.2;
        alphaWall       uniform 0.36;
        value           nonuniform List<scalar> 
14
(
302.957
302.673
302.654
302.633
302.615
302.599
302.584
302.57
302.556
302.541
302.525
302.509
302.491
302.473
)
;
    }
    Table_master
    {
        type            zeroGradient;
    }
    Table_slave
    {
        type            zeroGradient;
    }
    inlet
    {
        type            fixedValue;
        value           uniform 293.15;
    }
    outlet
    {
        type            zeroGradient;
    }
}


// ************************************************************************* //
