/*--------------------------------*- C++ -*----------------------------------*\
  =========                 |
  \\      /  F ield         | OpenFOAM: The Open Source CFD Toolbox
   \\    /   O peration     | Website:  https://openfoam.org
    \\  /    A nd           | Version:  6
     \\/     M anipulation  |
\*---------------------------------------------------------------------------*/
FoamFile
{
    version     2.0;
    format      ascii;
    class       volScalarField;
    location    "1500";
    object      T;
}
// * * * * * * * * * * * * * * * * * * * * * * * * * * * * * * * * * * * * * //

dimensions      [0 0 0 1 0 0 0];

internalField   nonuniform List<scalar> 
662
(
302.575
302.278
302.265
302.261
302.258
302.254
302.25
302.246
302.24
302.23
302.217
302.203
302.196
302.203
302.233
302.356
302.337
302.333
302.34
302.345
302.348
302.35
302.353
302.355
302.357
302.358
302.36
302.361
302.363
302.364
302.365
302.368
302.388
302.79
302.323
302.299
302.303
302.308
302.311
302.311
302.308
302.3
302.279
302.244
302.206
302.184
302.188
302.205
302.219
302.227
302.247
302.36
302.324
302.323
302.331
302.339
302.34
302.338
302.336
302.333
302.33
302.328
302.325
302.323
302.322
302.322
302.324
302.329
302.368
303.012
302.383
302.34
302.356
302.376
302.393
302.405
302.411
302.403
302.368
302.299
302.22
302.175
302.18
302.205
302.22
302.226
302.243
302.324
302.316
302.324
302.34
302.356
302.352
302.348
302.344
302.339
302.334
302.329
302.325
302.32
302.316
302.317
302.317
302.321
302.361
303.229
302.46
302.382
302.404
302.441
302.481
302.517
302.541
302.542
302.492
302.374
302.237
302.162
302.173
302.209
302.232
302.239
302.244
302.256
302.275
302.305
302.336
302.365
302.389
302.407
302.419
302.429
302.437
302.444
302.448
302.45
302.451
302.449
302.411
302.372
302.345
302.364
303.428
302.569
302.439
302.443
302.484
302.539
302.601
302.657
302.681
302.623
302.448
302.248
302.147
302.166
302.216
302.254
302.27
302.274
302.291
302.317
302.349
302.382
302.413
302.438
302.46
302.475
302.486
302.495
302.5
302.502
302.499
302.492
302.481
302.455
302.415
302.374
302.367
302.46
302.533
302.536
303.581
302.783
302.6
302.533
302.535
302.57
302.627
302.709
302.776
302.71
302.484
302.242
302.129
302.16
302.23
302.287
302.317
302.332
302.352
302.379
302.41
302.442
302.47
302.493
302.512
302.526
302.535
302.542
302.544
302.543
302.536
302.525
302.509
302.484
302.449
302.408
302.385
302.422
302.448
302.489
304.84
303.53
303.116
302.879
302.74
302.681
302.688
302.743
302.821
302.782
302.545
302.243
302.087
302.159
302.26
302.338
302.381
302.404
302.425
302.45
302.477
302.504
302.527
302.546
302.56
302.57
302.576
302.579
302.579
302.575
302.566
302.551
302.532
302.508
302.478
302.443
302.418
302.421
302.432
302.463
307.139
305.002
304.246
303.794
303.436
303.181
303.034
302.98
302.92
302.715
302.365
302.076
302.051
302.186
302.321
302.411
302.456
302.478
302.498
302.519
302.541
302.561
302.578
302.59
302.599
302.604
302.606
302.606
302.604
302.599
302.59
302.578
302.557
302.536
302.514
302.491
302.477
302.48
302.501
302.668
293.695
299.76
301.847
302.549
302.737
302.732
302.578
302.251
301.943
301.856
302.085
302.277
302.426
302.496
302.527
302.545
302.561
302.577
302.593
302.606
302.616
302.623
302.627
302.629
302.629
302.628
302.626
302.623
302.62
302.62
302.622
302.628
302.642
302.667
302.703
302.741
302.774
302.851
295.427
295.497
298.155
300.066
301.035
301.399
301.448
301.444
301.559
301.838
302.269
302.449
302.529
302.566
302.586
302.6
302.611
302.622
302.631
302.638
302.643
302.646
302.648
302.65
302.651
302.652
302.653
302.654
302.657
302.66
302.664
302.673
302.687
302.707
302.732
302.757
302.78
302.824
299.639
297.636
295.63
295.789
297.681
299.33
300.246
300.725
301.014
301.347
301.766
302.198
302.507
302.568
302.602
302.62
302.632
302.64
302.647
302.653
302.657
302.66
302.662
302.664
302.666
302.667
302.668
302.67
302.672
302.674
302.676
302.679
302.683
302.69
302.7
302.714
302.73
302.749
302.772
302.799
299.88
298.819
298.365
298.462
299.278
300.061
300.642
301.103
301.537
301.951
302.319
302.562
302.644
302.659
302.669
302.677
302.682
302.686
302.689
302.691
302.692
302.693
302.694
302.694
302.694
302.694
302.694
302.694
302.694
302.694
302.694
302.695
302.697
302.7
302.704
302.713
302.724
302.731
302.789
302.895
303.789
303.317
302.982
302.797
302.696
302.672
302.707
302.786
302.825
302.684
302.386
302.145
305.819
304.543
304.006
303.603
303.295
303.094
302.998
302.961
302.842
302.549
302.197
302.02
297.747
301.067
302.298
302.679
302.751
302.685
302.427
302.079
301.866
301.909
294.444
296.839
299.246
300.647
301.274
301.439
301.44
301.479
301.682
301.999
298.952
296.468
295.178
296.705
298.637
299.857
300.526
300.876
301.169
301.547
301.987
302.351
299.129
298.551
298.293
298.84
299.698
300.372
300.883
301.319
301.751
302.143
302.462
302.615
304.001
304.007
303.612
303.306
303.064
302.902
302.833
302.842
302.875
302.773
302.482
302.173
307.238
305.043
304.458
303.921
303.546
303.288
303.122
303.022
302.868
302.558
302.183
301.962
295.429
296.754
299.677
301.254
301.916
302.104
302.032
301.826
301.703
301.801
293.883
295.341
297.577
299.406
300.439
300.9
301.075
301.271
301.583
301.981
299.668
298.068
296.901
296.989
298.368
299.583
300.342
300.826
301.201
301.601
302.05
302.406
299.697
299.677
299.739
299.881
300.293
300.751
301.187
301.624
302.033
302.338
302.544
302.636
304.3
303.795
303.451
303.176
302.97
302.855
302.829
302.865
302.849
302.646
302.313
302.087
305.845
304.811
304.164
303.717
303.405
303.195
303.067
302.963
302.731
302.365
302.041
301.951
295.05
298.375
300.617
301.665
302.053
302.091
301.934
301.741
301.724
301.916
294.564
296.433
298.595
300.011
300.724
301.001
301.161
301.411
301.778
302.157
298.783
297.408
296.64
297.647
299.048
300.007
300.613
301.013
301.395
301.819
302.25
302.497
299.663
299.703
299.786
300.068
300.525
300.97
301.405
301.837
302.2
302.452
302.607
302.645
)
;

boundaryField
{
    floor
    {
        type            wallHeatTransfer;
        Tinf            uniform 305.2;
        alphaWall       uniform 0.24;
        value           nonuniform List<scalar> 
36
(
302.548
302.897
302.825
302.786
302.786
302.798
302.822
302.849
302.876
302.902
302.927
302.951
302.974
302.995
303.017
303.039
303.062
303.072
303.117
303.117
302.972
302.9
302.853
302.844
302.896
302.878
302.548
302.501
302.554
302.623
302.897
302.623
302.895
302.579
302.709
302.551
)
;
    }
    ceiling
    {
        type            wallHeatTransfer;
        Tinf            uniform 303.2;
        alphaWall       uniform 0.24;
        value           nonuniform List<scalar> 
58
(
299.894
299.921
299.991
300.253
300.687
301.112
301.529
301.943
302.288
302.526
302.675
302.71
302.715
302.728
302.738
302.746
302.751
302.756
302.759
302.762
302.764
302.765
302.766
302.766
302.765
302.764
302.763
302.762
302.76
302.758
302.756
302.754
302.753
302.753
302.755
302.76
302.768
302.778
302.832
302.924
305.698
304.728
294.816
300.108
299.902
299.951
300.078
300.466
300.902
301.32
301.738
302.13
302.418
302.614
302.704
306.906
304.947
296.105
)
;
    }
    sWall
    {
        type            wallHeatTransfer;
        Tinf            uniform 315.2;
        alphaWall       uniform 0.36;
        value           nonuniform List<scalar> 4(300.938 301.055 300.92 301.408);
    }
    nWall
    {
        type            wallHeatTransfer;
        Tinf            uniform 307.2;
        alphaWall       uniform 0.36;
        value           nonuniform List<scalar> 6(303.382 303.322 303.208 303.433 303.395 303.494);
    }
    sideWalls
    {
        type            empty;
    }
    glass1
    {
        type            wallHeatTransfer;
        Tinf            uniform 315.2;
        alphaWall       uniform 4.3;
        value           nonuniform List<scalar> 10(311.473 310.767 310.289 309.904 309.596 309.284 309.277 311.383 309.819 311.427);
    }
    glass2
    {
        type            wallHeatTransfer;
        Tinf            uniform 307.2;
        alphaWall       uniform 4.3;
        value           nonuniform List<scalar> 2(305.438 305.567);
    }
    sun
    {
        type            wallHeatTransfer;
        Tinf            uniform 305.2;
        alphaWall       uniform 0.24;
        value           nonuniform List<scalar> 
14
(
302.877
302.597
302.582
302.568
302.556
302.544
302.533
302.521
302.508
302.493
302.476
302.462
302.459
302.478
)
;
    }
    Table_master
    {
        type            zeroGradient;
    }
    Table_slave
    {
        type            zeroGradient;
    }
    inlet
    {
        type            fixedValue;
        value           uniform 293.15;
    }
    outlet
    {
        type            zeroGradient;
    }
}


// ************************************************************************* //
