/*--------------------------------*- C++ -*----------------------------------*\
  =========                 |
  \\      /  F ield         | OpenFOAM: The Open Source CFD Toolbox
   \\    /   O peration     | Website:  https://openfoam.org
    \\  /    A nd           | Version:  6
     \\/     M anipulation  |
\*---------------------------------------------------------------------------*/
FoamFile
{
    version     2.0;
    format      ascii;
    class       volVectorField;
    location    "1500";
    object      U;
}
// * * * * * * * * * * * * * * * * * * * * * * * * * * * * * * * * * * * * * //

dimensions      [0 1 -1 0 0 0 0];

internalField   nonuniform List<vector> 
662
(
(0.0490067 0.0840625 0)
(-0.164164 0.0202937 0)
(-0.180647 0.0156281 0)
(-0.209202 0.0115619 0)
(-0.232011 0.00693132 0)
(-0.248556 0.00192132 0)
(-0.257707 -0.00368942 0)
(-0.257382 -0.0102375 0)
(-0.245185 -0.0182484 0)
(-0.219252 -0.0275648 0)
(-0.179533 -0.0367201 0)
(-0.129804 -0.0428453 0)
(-0.077555 -0.0422209 0)
(-0.0323405 -0.0321709 0)
(-0.0186825 -0.00534226 0)
(-0.00354047 0.00897831 0)
(-0.0334841 -0.0195834 0)
(-0.00967602 -0.030009 0)
(0.0177152 -0.0233075 0)
(0.0355676 -0.0158724 0)
(0.0485323 -0.00842003 0)
(0.0557787 -0.00455037 0)
(0.0586146 -0.00316175 0)
(0.0594045 -0.00265537 0)
(0.0595791 -0.00235953 0)
(0.059475 -0.00212023 0)
(0.0590609 -0.00186917 0)
(0.0581993 -0.00146487 0)
(0.0564715 -0.000579451 0)
(0.0529298 0.00120128 0)
(0.0465933 0.00288897 0)
(0.0439697 0.00368545 0)
(-0.0215476 0.0211341 0)
(0.242729 0.174435 0)
(-0.159279 0.056338 0)
(-0.143997 0.0475954 0)
(-0.174175 0.0396051 0)
(-0.196569 0.0307309 0)
(-0.213125 0.0207352 0)
(-0.223029 0.0088157 0)
(-0.224387 -0.00598506 0)
(-0.214828 -0.0243325 0)
(-0.192934 -0.0452914 0)
(-0.158597 -0.0652642 0)
(-0.115548 -0.0778098 0)
(-0.0707904 -0.0762677 0)
(-0.0308119 -0.0598684 0)
(0.00200289 -0.031372 0)
(0.0313297 -0.000754798 0)
(0.0504008 0.0336065 0)
(-0.0197074 0.0737689 0)
(0.080471 0.0399684 0)
(0.0159928 -0.0199373 0)
(0.027772 -0.0356031 0)
(0.0414367 -0.0322965 0)
(0.0525216 -0.0236089 0)
(0.0582691 -0.00991573 0)
(0.0595499 -0.00174136 0)
(0.0594142 0.00134399 0)
(0.0594566 0.00249508 0)
(0.0596953 0.00314138 0)
(0.0598532 0.00356113 0)
(0.0598622 0.00390491 0)
(0.05974 0.00451178 0)
(0.0590449 0.00614409 0)
(0.055701 0.0109669 0)
(0.047079 0.0145451 0)
(0.0489556 0.0158403 0)
(-0.0686905 0.0462673 0)
(0.419825 0.261406 0)
(-0.187099 0.0916936 0)
(-0.103697 0.0770094 0)
(-0.134215 0.0616128 0)
(-0.153278 0.0467953 0)
(-0.168295 0.0306663 0)
(-0.17855 0.0116316 0)
(-0.18189 -0.0115858 0)
(-0.174946 -0.0399495 0)
(-0.156646 -0.0723227 0)
(-0.126934 -0.102586 0)
(-0.0900242 -0.120203 0)
(-0.0530407 -0.115817 0)
(-0.0211535 -0.0923388 0)
(0.00533793 -0.0567346 0)
(0.0232422 -0.0266575 0)
(0.0318893 0.00410613 0)
(-0.0441836 0.0565953 0)
(0.127237 -0.0166746 0)
(0.0695328 -0.0345016 0)
(0.0601507 -0.0399819 0)
(0.0628753 -0.0376828 0)
(0.0667896 -0.033078 0)
(0.0688421 -0.0242379 0)
(0.0613281 -0.0157173 0)
(0.0557045 -0.0112437 0)
(0.0538732 -0.00879705 0)
(0.053695 -0.0072374 0)
(0.0539201 -0.00615709 0)
(0.0543976 -0.00530318 0)
(0.0554994 -0.0043204 0)
(0.0581065 -0.0012502 0)
(0.0567003 0.0148205 0)
(0.044288 0.0247958 0)
(0.0575932 0.0298238 0)
(-0.111566 0.070858 0)
(0.573143 0.331936 0)
(-0.23341 0.124361 0)
(-0.0602492 0.100957 0)
(-0.0909979 0.079613 0)
(-0.103445 0.0616975 0)
(-0.114259 0.0423945 0)
(-0.123346 0.0185523 0)
(-0.128183 -0.0119657 0)
(-0.123183 -0.0500524 0)
(-0.107835 -0.0938814 0)
(-0.0830873 -0.134311 0)
(-0.0538695 -0.156483 0)
(-0.0265719 -0.148658 0)
(-0.00392246 -0.118291 0)
(0.0147708 -0.0762955 0)
(0.0290389 -0.0362398 0)
(0.0457046 0.00273655 0)
(0.0421368 0.0440179 0)
(0.0863262 0.0603899 0)
(0.0864733 -0.00685334 0)
(0.0720744 -0.030453 0)
(0.0664511 -0.0353595 0)
(0.0633199 -0.0345192 0)
(0.0585517 -0.0298556 0)
(0.0589518 -0.0183335 0)
(0.0690444 -0.0125617 0)
(0.0778364 -0.00957513 0)
(0.0838524 -0.00776583 0)
(0.0881839 -0.00616866 0)
(0.0908339 -0.00426007 0)
(0.0903712 -0.00165335 0)
(0.0850922 0.00208004 0)
(0.0731032 0.00745717 0)
(0.0580135 0.0251444 0)
(0.042036 0.0400031 0)
(0.0663404 0.0508502 0)
(-0.150662 0.0911779 0)
(0.691741 0.390393 0)
(-0.284667 0.143344 0)
(-0.0189231 0.112871 0)
(-0.0456358 0.0888513 0)
(-0.0498559 0.07033 0)
(-0.0544022 0.0505671 0)
(-0.0603518 0.0248933 0)
(-0.0651077 -0.0101713 0)
(-0.0602091 -0.0564923 0)
(-0.0466029 -0.11053 0)
(-0.0278968 -0.158621 0)
(-0.00905754 -0.182727 0)
(0.00617574 -0.169797 0)
(0.0171103 -0.134675 0)
(0.0265297 -0.0905608 0)
(0.035434 -0.0474619 0)
(0.0477598 -0.0104823 0)
(0.0621297 0.00985868 0)
(0.0760852 -0.00782527 0)
(0.0754635 -0.025614 0)
(0.068595 -0.0312542 0)
(0.0606214 -0.0315166 0)
(0.0539066 -0.0295003 0)
(0.0486861 -0.0244878 0)
(0.0481307 -0.0147356 0)
(0.0523942 -0.00946013 0)
(0.0574838 -0.00758432 0)
(0.062251 -0.00654842 0)
(0.0667464 -0.00478596 0)
(0.0705463 -0.00132247 0)
(0.0727609 0.00423664 0)
(0.0718021 0.0117967 0)
(0.0673606 0.0216736 0)
(0.0605413 0.0366368 0)
(0.0487324 0.0529082 0)
(0.0771036 0.0714565 0)
(-0.0135211 0.0977852 0)
(0.0534307 0.155636 0)
(-0.0876033 0.0805084 0)
(-0.282939 0.00254273 0)
(0.745539 0.449192 0)
(-0.301382 0.0440073 0)
(0.0348294 0.0753944 0)
(0.00988527 0.074301 0)
(0.0106931 0.0680835 0)
(0.00929423 0.0533187 0)
(0.00552949 0.0294559 0)
(0.00273568 -0.00767413 0)
(0.0099824 -0.0627076 0)
(0.0223767 -0.123783 0)
(0.0336418 -0.173461 0)
(0.040231 -0.194873 0)
(0.0415651 -0.177375 0)
(0.0389903 -0.139718 0)
(0.036285 -0.0947946 0)
(0.0355798 -0.0526168 0)
(0.0391967 -0.0196715 0)
(0.0475554 -0.00320337 0)
(0.0533514 -0.00661316 0)
(0.0522141 -0.0147144 0)
(0.0463592 -0.0207258 0)
(0.0391776 -0.0232629 0)
(0.0329055 -0.0231247 0)
(0.0284088 -0.0205401 0)
(0.0271364 -0.0159611 0)
(0.0292353 -0.0134718 0)
(0.0329864 -0.0128477 0)
(0.0374692 -0.0123822 0)
(0.04244 -0.0107 0)
(0.0476314 -0.00661984 0)
(0.0529254 0.000907571 0)
(0.056615 0.0113744 0)
(0.0582929 0.0239005 0)
(0.0596935 0.03886 0)
(0.0585561 0.0551311 0)
(0.0817683 0.0757791 0)
(0.0658219 0.0861092 0)
(0.100691 0.0964585 0)
(0.119986 0.0565204 0)
(-0.140063 -0.0324675 0)
(0.812321 0.230262 0)
(0.24871 0.234397 0)
(0.200742 0.102841 0)
(0.136455 0.0825342 0)
(0.099271 0.0741695 0)
(0.0770048 0.0601839 0)
(0.0665028 0.0360388 0)
(0.067371 -0.000318467 0)
(0.077995 -0.0530448 0)
(0.0890578 -0.1135 0)
(0.0942489 -0.165406 0)
(0.0901396 -0.191497 0)
(0.0753048 -0.16667 0)
(0.0558489 -0.129025 0)
(0.0381284 -0.0858915 0)
(0.0258513 -0.0472397 0)
(0.0204366 -0.019512 0)
(0.0210319 -0.00611127 0)
(0.0225703 -0.00589298 0)
(0.0211639 -0.0106769 0)
(0.016894 -0.015236 0)
(0.0114713 -0.0177015 0)
(0.00638419 -0.0183387 0)
(0.00258656 -0.0176303 0)
(0.00109217 -0.0162693 0)
(0.00200603 -0.0159868 0)
(0.00437272 -0.0166026 0)
(0.00759804 -0.0170326 0)
(0.0116249 -0.0162184 0)
(0.0166442 -0.012991 0)
(0.0230132 -0.00585001 0)
(0.0324707 0.00609912 0)
(0.0401943 0.0193645 0)
(0.0485612 0.0330997 0)
(0.0570193 0.0466231 0)
(0.077982 0.0628519 0)
(0.091427 0.0670861 0)
(0.123274 0.0613011 0)
(0.168116 0.04943 0)
(-0.0178335 0.0947679 0)
(0.587805 0.00256788 0)
(0.28866 0.19838 0)
(0.404897 0.153177 0)
(0.369447 0.149151 0)
(0.301497 0.1303 0)
(0.244812 0.0965994 0)
(0.207045 0.0541491 0)
(0.187843 0.00193653 0)
(0.179284 -0.0576331 0)
(0.172544 -0.114566 0)
(0.158088 -0.156396 0)
(0.132494 -0.171309 0)
(0.0869831 -0.136535 0)
(0.0539031 -0.102445 0)
(0.0239333 -0.0642292 0)
(0.00334447 -0.0323797 0)
(-0.00671912 -0.0127811 0)
(-0.0090529 -0.00518576 0)
(-0.00937131 -0.00494773 0)
(-0.0108689 -0.00787422 0)
(-0.0141239 -0.0109082 0)
(-0.0183058 -0.0129434 0)
(-0.0224569 -0.014135 0)
(-0.0258398 -0.0148911 0)
(-0.0279328 -0.0156548 0)
(-0.0288367 -0.0168838 0)
(-0.0290692 -0.0183744 0)
(-0.028916 -0.0196068 0)
(-0.0283019 -0.020008 0)
(-0.0268468 -0.0189427 0)
(-0.0237909 -0.0156413 0)
(-0.0170008 -0.00916138 0)
(-0.00163792 0.00118642 0)
(0.0106581 0.0118582 0)
(0.02321 0.018832 0)
(0.0418823 0.0254842 0)
(0.0583564 0.0210573 0)
(0.081833 0.00914945 0)
(0.149049 0.0569364 0)
(-0.465661 0.215314 0)
(0.3956 0.143769 0)
(0.404037 0.181965 0)
(0.3667 0.1831 0)
(0.331093 0.144505 0)
(0.298625 0.0876148 0)
(0.273765 0.0240119 0)
(0.250246 -0.0388984 0)
(0.221103 -0.091535 0)
(0.18308 -0.124119 0)
(0.137368 -0.130945 0)
(0.0675388 -0.0948097 0)
(0.0261175 -0.0661574 0)
(-0.00918657 -0.0351834 0)
(-0.0277574 -0.0166103 0)
(-0.0356531 -0.00778417 0)
(-0.0382595 -0.0044883 0)
(-0.0394049 -0.00452141 0)
(-0.0411352 -0.00615125 0)
(-0.0439556 -0.00809675 0)
(-0.04751 -0.00984483 0)
(-0.0513005 -0.0113865 0)
(-0.0549894 -0.0128278 0)
(-0.0584891 -0.0142639 0)
(-0.0620324 -0.0157294 0)
(-0.0659952 -0.0170095 0)
(-0.0706911 -0.0177062 0)
(-0.0763938 -0.0172904 0)
(-0.0834532 -0.0151015 0)
(-0.0924112 -0.0103205 0)
(-0.10383 -0.00205329 0)
(-0.116607 0.00993108 0)
(-0.130423 0.0246153 0)
(-0.153907 0.0417053 0)
(-0.189435 0.0603625 0)
(-0.239305 0.0770781 0)
(-0.296424 0.0891683 0)
(-0.377278 0.0952205 0)
(-0.66256 0.0903126 0)
(0.207971 -0.112305 0)
(0.246553 0.239067 0)
(0.23837 0.203232 0)
(0.241475 0.162437 0)
(0.239874 0.1057 0)
(0.230647 0.0435039 0)
(0.212314 -0.0118588 0)
(0.180494 -0.0533044 0)
(0.137127 -0.0769266 0)
(0.0875491 -0.0806989 0)
(0.0137519 -0.0486819 0)
(-0.0248731 -0.027344 0)
(-0.0458317 -0.015471 0)
(-0.0569497 -0.0102684 0)
(-0.0620224 -0.00831816 0)
(-0.064233 -0.00803832 0)
(-0.0656022 -0.00874435 0)
(-0.0672641 -0.00997966 0)
(-0.0695797 -0.0113702 0)
(-0.0724828 -0.0127012 0)
(-0.0758519 -0.0138882 0)
(-0.0796757 -0.0149009 0)
(-0.0840619 -0.0157199 0)
(-0.0891876 -0.0162818 0)
(-0.095194 -0.0163826 0)
(-0.102089 -0.0156479 0)
(-0.109688 -0.0135361 0)
(-0.117538 -0.00938829 0)
(-0.124869 -0.00249906 0)
(-0.130695 0.0075372 0)
(-0.1348 0.0210027 0)
(-0.137814 0.0385647 0)
(-0.141061 0.0595432 0)
(-0.144982 0.0811454 0)
(-0.145211 0.0959831 0)
(-0.124902 0.0898134 0)
(-0.0640074 0.0338742 0)
(-0.208029 -0.182756 0)
(0.398945 -0.340138 0)
(-0.0952123 -0.483159 0)
(-0.284541 -0.00827015 0)
(-0.112058 0.187305 0)
(-0.0190939 0.170409 0)
(0.0378038 0.138054 0)
(0.0733035 0.0942818 0)
(0.0903159 0.0458401 0)
(0.0897233 0.00452359 0)
(0.0737145 -0.0219116 0)
(0.0404701 -0.0340253 0)
(-0.00137677 -0.0366989 0)
(-0.0461085 0.00967926 0)
(-0.067574 0.0261002 0)
(-0.0775501 0.0325273 0)
(-0.0822559 0.0355167 0)
(-0.0843379 0.037359 0)
(-0.0853229 0.0385489 0)
(-0.0859869 0.039479 0)
(-0.0867591 0.0401469 0)
(-0.0878443 0.0404441 0)
(-0.0893266 0.0402798 0)
(-0.0912427 0.0396547 0)
(-0.0936109 0.0386343 0)
(-0.0964387 0.0372838 0)
(-0.0997151 0.0356639 0)
(-0.103381 0.0338611 0)
(-0.1073 0.0319756 0)
(-0.111248 0.0300871 0)
(-0.114845 0.0281871 0)
(-0.117307 0.0265579 0)
(-0.117319 0.0273557 0)
(-0.113142 0.0322801 0)
(-0.103425 0.042292 0)
(-0.0881905 0.0573055 0)
(-0.0689515 0.0741491 0)
(-0.0458726 0.08363 0)
(0.0226076 0.0486094 0)
(0.151185 -0.0584302 0)
(-0.0524551 -0.0616697 0)
(0.281863 -0.244669 0)
(-0.282179 -0.135129 0)
(-0.414173 -0.0124941 0)
(-0.365554 0.0805659 0)
(-0.263274 0.0976636 0)
(-0.167919 0.0880657 0)
(-0.0931241 0.0671828 0)
(-0.0460954 0.0426227 0)
(-0.0282589 0.0234355 0)
(-0.0336314 0.0167533 0)
(-0.0508806 0.0188613 0)
(-0.0666028 -0.00297266 0)
(-0.0927422 -0.107003 0)
(-0.096082 -0.107853 0)
(-0.0958845 -0.109951 0)
(-0.0948724 -0.114043 0)
(-0.0941749 -0.118156 0)
(-0.0939771 -0.121713 0)
(-0.0943227 -0.125006 0)
(-0.0952049 -0.127792 0)
(-0.0966192 -0.129732 0)
(-0.0985439 -0.130547 0)
(-0.100921 -0.130095 0)
(-0.103652 -0.128357 0)
(-0.106609 -0.125371 0)
(-0.109645 -0.121175 0)
(-0.11256 -0.115768 0)
(-0.115057 -0.109066 0)
(-0.116713 -0.100842 0)
(-0.116974 -0.0906636 0)
(-0.11505 -0.0783253 0)
(-0.109363 -0.0649643 0)
(-0.097238 -0.0503918 0)
(-0.0760551 -0.0341647 0)
(-0.0455487 -0.015731 0)
(-0.00427865 0.00496244 0)
(0.0397738 0.00278619 0)
(0.107951 -0.0572177 0)
(0.124836 -0.102356 0)
(-0.523876 0.000146806 0)
(0.474384 0.385103 0)
(0.19356 0.134113 0)
(0.168327 0.0899252 0)
(0.114697 0.0781586 0)
(0.0858243 0.0693094 0)
(0.0697535 0.0508177 0)
(0.0644097 0.0204641 0)
(0.0722887 -0.0249253 0)
(0.0839413 -0.0828939 0)
(0.0925654 -0.14128 0)
(0.0930763 -0.182268 0)
(0.0846119 -0.191291 0)
(0.28492 0.0906133 0)
(0.369266 0.175074 0)
(0.397184 0.148862 0)
(0.335312 0.142793 0)
(0.270923 0.114637 0)
(0.223382 0.0765804 0)
(0.195303 0.0294731 0)
(0.182522 -0.027442 0)
(0.176409 -0.0870328 0)
(0.166651 -0.138097 0)
(0.146597 -0.167669 0)
(0.116865 -0.166629 0)
(0.379905 0.154102 0)
(0.386691 0.189514 0)
(0.348802 0.167109 0)
(0.314002 0.117489 0)
(0.285288 0.0560977 0)
(0.262565 -0.00806044 0)
(0.236625 -0.0671852 0)
(0.203261 -0.110793 0)
(0.160912 -0.130941 0)
(0.113798 -0.124214 0)
(0.295264 0.260152 0)
(0.238237 0.21904 0)
(0.240089 0.185186 0)
(0.241535 0.135514 0)
(0.236305 0.0744788 0)
(0.222551 0.014438 0)
(0.19805 -0.0345904 0)
(0.160009 -0.0675326 0)
(0.11269 -0.0813696 0)
(0.0632355 -0.0746399 0)
(0.0121899 -0.439402 0)
(-0.255934 -0.351119 0)
(-0.158767 0.150502 0)
(-0.0580321 0.182755 0)
(0.0133307 0.155544 0)
(0.0579532 0.117358 0)
(0.0840142 0.0699335 0)
(0.0922265 0.0235399 0)
(0.084158 -0.0106377 0)
(0.0589716 -0.0295871 0)
(0.0197048 -0.0363019 0)
(-0.016482 -0.0285362 0)
(-0.244572 -0.17067 0)
(-0.373497 -0.078829 0)
(-0.40601 0.0452415 0)
(-0.314894 0.0947905 0)
(-0.21361 0.0947729 0)
(-0.12736 0.0785613 0)
(-0.0658785 0.0547824 0)
(-0.0336007 0.031785 0)
(-0.02887 0.0184268 0)
(-0.0416361 0.0178037 0)
(-0.0595887 0.0150568 0)
(-0.0747743 -0.0414646 0)
(0.763634 0.464895 0)
(0.31649 0.264643 0)
(0.34745 0.157539 0)
(0.270714 0.119864 0)
(0.20573 0.0987735 0)
(0.159521 0.0741251 0)
(0.133188 0.0417797 0)
(0.123821 -0.0025631 0)
(0.127619 -0.0582482 0)
(0.13206 -0.116776 0)
(0.128927 -0.163645 0)
(0.114336 -0.184029 0)
(0.78779 -0.174091 0)
(0.154316 0.239514 0)
(0.401282 0.172416 0)
(0.425302 0.179328 0)
(0.363975 0.163781 0)
(0.309741 0.123065 0)
(0.268896 0.0711494 0)
(0.243398 0.0118911 0)
(0.224351 -0.0506707 0)
(0.20508 -0.106101 0)
(0.177945 -0.143156 0)
(0.141147 -0.153394 0)
(0.300955 0.100339 0)
(0.350943 0.205507 0)
(0.322368 0.194762 0)
(0.306025 0.157638 0)
(0.287951 0.0996494 0)
(0.269379 0.0351083 0)
(0.24678 -0.0250415 0)
(0.213217 -0.0728987 0)
(0.169376 -0.101095 0)
(0.119654 -0.105903 0)
(0.445682 0.249162 0)
(0.07105 0.231732 0)
(0.117788 0.196149 0)
(0.147027 0.156345 0)
(0.163578 0.104361 0)
(0.166097 0.0476649 0)
(0.155197 -0.0014188 0)
(0.13036 -0.0357408 0)
(0.0918233 -0.0542334 0)
(0.0466446 -0.0575369 0)
(0.498169 -0.27662 0)
(-0.197527 -0.25632 0)
(-0.351578 -0.0617861 0)
(-0.257842 0.112914 0)
(-0.153325 0.12589 0)
(-0.0743097 0.108143 0)
(-0.0170807 0.076295 0)
(0.0173468 0.0383543 0)
(0.027829 0.00723412 0)
(0.0182093 -0.00983668 0)
(-0.0105926 -0.0143878 0)
(-0.042581 -0.0158739 0)
(0.325086 -0.257079 0)
(-0.356651 -0.164009 0)
(-0.480986 -0.106165 0)
(-0.449797 -0.0553722 0)
(-0.349025 -0.0410167 0)
(-0.243054 -0.0469422 0)
(-0.157685 -0.0640588 0)
(-0.104745 -0.08423 0)
(-0.0827203 -0.0939892 0)
(-0.075856 -0.0895999 0)
(-0.0680118 -0.0896174 0)
(-0.0737596 -0.098302 0)
(0.344022 0.29059 0)
(0.352822 0.203115 0)
(0.309926 0.132932 0)
(0.235999 0.10944 0)
(0.179824 0.0874167 0)
(0.143745 0.0595182 0)
(0.126418 0.021742 0)
(0.125001 -0.0289018 0)
(0.130378 -0.0873154 0)
(0.131764 -0.142104 0)
(0.123035 -0.177503 0)
(0.103978 -0.181537 0)
(-0.224743 0.189975 0)
(0.299199 0.193867 0)
(0.436099 0.169774 0)
(0.395299 0.176844 0)
(0.335453 0.14519 0)
(0.287324 0.0982418 0)
(0.254383 0.0422744 0)
(0.233324 -0.0195475 0)
(0.215317 -0.0799902 0)
(0.192773 -0.127544 0)
(0.1606 -0.151942 0)
(0.120743 -0.147165 0)
(0.367601 0.202841 0)
(0.333706 0.201915 0)
(0.314268 0.179851 0)
(0.297097 0.130265 0)
(0.278774 0.0674095 0)
(0.259301 0.00406966 0)
(0.231373 -0.0510422 0)
(0.192416 -0.0897709 0)
(0.144812 -0.106549 0)
(0.0940287 -0.0990236 0)
(0.0772553 0.223115 0)
(0.0963704 0.214162 0)
(0.134014 0.177793 0)
(0.157008 0.131609 0)
(0.166592 0.0758455 0)
(0.162021 0.0214554 0)
(0.14471 -0.0205097 0)
(0.11255 -0.0470053 0)
(0.0693284 -0.0577493 0)
(0.0242973 -0.0517725 0)
(-0.178851 -0.287554 0)
(-0.311699 -0.184237 0)
(-0.315097 0.0531695 0)
(-0.201437 0.126841 0)
(-0.110778 0.119174 0)
(-0.0428763 0.093495 0)
(0.00338582 0.0570558 0)
(0.0254612 0.0214185 0)
(0.0256487 -0.00325251 0)
(0.00607257 -0.0132494 0)
(-0.0282598 -0.0148997 0)
(-0.0492756 -0.0141686 0)
(-0.293264 -0.188964 0)
(-0.440031 -0.135555 0)
(-0.480958 -0.0774736 0)
(-0.402672 -0.0445151 0)
(-0.294622 -0.0422061 0)
(-0.196798 -0.0544873 0)
(-0.126887 -0.0745594 0)
(-0.0905827 -0.0911871 0)
(-0.0786285 -0.0927514 0)
(-0.0725044 -0.0876532 0)
(-0.0654683 -0.0947149 0)
(-0.091923 -0.103803 0)
)
;

boundaryField
{
    floor
    {
        type            noSlip;
    }
    ceiling
    {
        type            noSlip;
    }
    sWall
    {
        type            noSlip;
    }
    nWall
    {
        type            noSlip;
    }
    sideWalls
    {
        type            empty;
    }
    glass1
    {
        type            noSlip;
    }
    glass2
    {
        type            noSlip;
    }
    sun
    {
        type            noSlip;
    }
    Table_master
    {
        type            noSlip;
    }
    Table_slave
    {
        type            noSlip;
    }
    inlet
    {
        type            fixedValue;
        value           uniform (0.5 0 0);
    }
    outlet
    {
        type            zeroGradient;
    }
}


// ************************************************************************* //
