/*--------------------------------*- C++ -*----------------------------------*\
  =========                 |
  \\      /  F ield         | OpenFOAM: The Open Source CFD Toolbox
   \\    /   O peration     | Website:  https://openfoam.org
    \\  /    A nd           | Version:  6
     \\/     M anipulation  |
\*---------------------------------------------------------------------------*/
FoamFile
{
    version     2.0;
    format      ascii;
    class       volVectorField;
    location    "1500";
    object      U;
}
// * * * * * * * * * * * * * * * * * * * * * * * * * * * * * * * * * * * * * //

dimensions      [0 1 -1 0 0 0 0];

internalField   nonuniform List<vector> 
778
(
(0.0420217 0.0370717 0)
(-0.0696744 -0.00494079 0)
(0.178095 0.0437882 0)
(-0.0708858 -0.00997259 0)
(0.100301 0.0425533 0)
(0.154132 -0.0833002 0)
(-0.0802466 -0.00753641 0)
(0.0808478 0.0431806 0)
(0.103075 -0.0230151 0)
(0.138926 -0.156146 0)
(-0.087804 -0.00714586 0)
(0.0558458 0.0461336 0)
(0.10535 0.0301182 0)
(0.0854561 -0.046507 0)
(0.125636 -0.222443 0)
(-0.0876913 -0.00690573 0)
(0.00552395 0.0344795 0)
(0.0950836 0.0660505 0)
(0.103398 0.0391376 0)
(0.0705815 -0.078176 0)
(0.109598 -0.279161 0)
(-0.0822516 -0.00701388 0)
(-0.0429941 0.00657931 0)
(0.0587751 0.0739313 0)
(0.104908 0.0922488 0)
(0.0932726 0.0352165 0)
(0.060277 -0.106357 0)
(0.0896233 -0.327428 0)
(-0.0747486 -0.00722302 0)
(-0.0570967 -0.00597891 0)
(0.00995193 0.0503717 0)
(0.0794714 0.109992 0)
(0.100861 0.107738 0)
(0.0801702 0.0273973 0)
(0.055716 -0.130559 0)
(0.0643529 -0.367517 0)
(-0.0656196 -0.00765004 0)
(-0.0572485 -0.0110668 0)
(-0.0284652 0.0104829 0)
(0.0398342 0.0907375 0)
(0.0828026 0.137734 0)
(0.0892994 0.11701 0)
(0.067487 0.0201993 0)
(0.0559052 -0.151033 0)
(0.0317531 -0.399903 0)
(-0.0552354 -0.00758385 0)
(-0.0516895 -0.0142602 0)
(-0.0393752 -0.0100741 0)
(0.000774697 0.0430536 0)
(0.051081 0.123701 0)
(0.0755572 0.159166 0)
(0.073983 0.124636 0)
(0.0569715 0.0164102 0)
(0.057044 -0.168484 0)
(-0.00999947 -0.429186 0)
(-0.0449087 -0.00669576 0)
(-0.043182 -0.0155737 0)
(-0.0378819 -0.0197314 0)
(-0.0212178 -0.00141848 0)
(0.0184329 0.0745898 0)
(0.0495611 0.150173 0)
(0.0615867 0.177405 0)
(0.0569269 0.134003 0)
(0.0487711 0.0185707 0)
(0.0535593 -0.187251 0)
(-0.0305848 -0.457099 0)
(-0.0371962 -0.00532526 0)
(-0.0338094 -0.014727 0)
(-0.0316087 -0.0237399 0)
(-0.0248709 -0.0219429 0)
(-0.00431189 0.0163534 0)
(0.0233111 0.0986357 0)
(0.0392161 0.171536 0)
(0.0431465 0.194931 0)
(0.038636 0.148112 0)
(0.0420362 0.02563 0)
(0.045276 -0.206341 0)
(-0.0556118 -0.480689 0)
(-0.0346518 -0.0031978 0)
(-0.0257806 -0.0126691 0)
(-0.0232451 -0.0233937 0)
(-0.0218284 -0.0302513 0)
(-0.0132527 -0.0192036 0)
(0.00559817 0.0347314 0)
(0.0189038 0.115913 0)
(0.0229767 0.188669 0)
(0.0212209 0.213504 0)
(0.0178104 0.168499 0)
(0.0326147 0.0420784 0)
(0.0225417 -0.234436 0)
(-0.0893623 -0.471927 0)
(-0.023429 0.00202316 0)
(-0.021911 -0.0111729 0)
(-0.0143532 -0.0202164 0)
(-0.0163139 -0.0313287 0)
(-0.0141876 -0.0328963 0)
(-0.00454926 -0.0123385 0)
(0.00747677 0.0475499 0)
(0.00869472 0.126778 0)
(0.00339119 0.201589 0)
(-0.00445952 0.232857 0)
(-0.00949911 0.200999 0)
(0.0187164 0.0812796 0)
(-0.0268512 -0.266655 0)
(-0.157028 -0.365948 0)
(0.082842 0.00411162 0)
(-0.0230271 -0.0141298 0)
(-0.00547542 -0.0154411 0)
(-0.0100037 -0.0286168 0)
(-0.0127175 -0.0355989 0)
(-0.0097856 -0.0310007 0)
(-0.00100658 -0.00257418 0)
(0.00330464 0.0563269 0)
(-0.00392774 0.131206 0)
(-0.0166884 0.206974 0)
(-0.0308073 0.24665 0)
(-0.0377255 0.234369 0)
(0.0199786 0.114887 0)
(-0.15656 -0.247929 0)
(-0.318714 -0.114952 0)
(-0.0181597 -0.0394318 0)
(0.0049064 -0.00852576 0)
(-0.00351687 -0.024698 0)
(-0.0103692 -0.0332538 0)
(-0.0129058 -0.035319 0)
(-0.00989944 -0.0246975 0)
(-0.00454831 0.00710612 0)
(-0.00576981 0.0619669 0)
(-0.0174606 0.133031 0)
(-0.0361216 0.207016 0)
(-0.056309 0.255341 0)
(-0.060558 0.274499 0)
(0.0418095 0.0242997 0)
(-0.507693 -0.0886079 0)
(-0.0224569 -0.141191 0)
(0.0158022 0.000329356 0)
(0.00370128 -0.0212519 0)
(-0.00781998 -0.0294109 0)
(-0.0150722 -0.0334304 0)
(-0.0174339 -0.030356 0)
(-0.0155059 -0.0150476 0)
(-0.014238 0.0177411 0)
(-0.019108 0.0684489 0)
(-0.0329513 0.133521 0)
(-0.0561355 0.203588 0)
(-0.083813 0.261982 0)
(-0.0802402 0.343666 0)
(-0.719361 -0.027715 0)
(-0.102802 -0.146162 0)
(0.021744 0.00503165 0)
(0.010656 -0.0204308 0)
(-0.00510753 -0.0260476 0)
(-0.016893 -0.0296312 0)
(-0.0239801 -0.0290631 0)
(-0.0265523 -0.0213873 0)
(-0.0266362 -0.00294562 0)
(-0.0287106 0.0292668 0)
(-0.0354409 0.0752069 0)
(-0.0510758 0.133396 0)
(-0.079475 0.1978 0)
(-0.124591 0.266367 0)
(-0.101601 0.346801 0)
(-2.59626 0.0217192 0)
(0.305765 -0.213918 0)
(-0.00971564 0.00304221 0)
(0.0138855 -0.0237475 0)
(-0.00267277 -0.0244634 0)
(-0.0186248 -0.0259892 0)
(-0.0299521 -0.0255068 0)
(-0.0366673 -0.0207827 0)
(-0.0397243 -0.00962522 0)
(-0.0420083 0.0108396 0)
(-0.0450923 0.0408993 0)
(-0.0534214 0.0815802 0)
(-0.071999 0.131843 0)
(-0.110262 0.187571 0)
(-0.206574 0.239003 0)
(-0.0264378 0.19432 0)
(-1.15571 0.238119 0)
(0.228721 0.0736857 0)
(-0.00861432 -0.0262663 0)
(-0.00319153 -0.025058 0)
(-0.0208279 -0.0233892 0)
(-0.0356273 -0.0217777 0)
(-0.0459646 -0.0177818 0)
(-0.0521249 -0.00979484 0)
(-0.0557769 0.0041156 0)
(-0.0575708 0.0242086 0)
(-0.0614208 0.0513934 0)
(-0.0716952 0.0859358 0)
(-0.0949845 0.12618 0)
(-0.149882 0.162415 0)
(-0.26179 0.149588 0)
(0.272091 0.0169687 0)
(-0.532298 0.357186 0)
(0.0632039 0.0217332 0)
(-0.013128 -0.02296 0)
(-0.025182 -0.0216573 0)
(-0.0414293 -0.0185976 0)
(-0.0545879 -0.0144324 0)
(-0.0634604 -0.00767277 0)
(-0.0687934 0.00292376 0)
(-0.0703813 0.0172849 0)
(-0.0715313 0.0359945 0)
(-0.0760242 0.0590919 0)
(-0.0881293 0.0859544 0)
(-0.115858 0.111073 0)
(-0.164234 0.11086 0)
(-0.170268 0.0463732 0)
(0.35953 0.0163116 0)
(0.146059 0.362512 0)
(0.161213 0.18902 0)
(0.024213 -0.190718 0)
(0.0139907 0.0132025 0)
(-0.0315814 -0.0183035 0)
(-0.0479554 -0.0157747 0)
(-0.0627293 -0.0114441 0)
(-0.0737043 -0.00516229 0)
(-0.0805038 0.0037493 0)
(-0.0822931 0.0148975 0)
(-0.081806 0.0286481 0)
(-0.0822004 0.0446521 0)
(-0.0864967 0.0621793 0)
(-0.0977266 0.0781785 0)
(-0.115648 0.0810056 0)
(-0.101817 0.0505438 0)
(0.0597928 0.0417502 0)
(0.409426 -0.0440925 0)
(0.0751762 0.250976 0)
(0.268565 0.270089 0)
(0.470542 0.477385 0)
(0.0201297 -0.051702 0)
(0.0066315 0.0166307 0)
(-0.029289 -0.00745382 0)
(-0.0544153 -0.0121159 0)
(-0.0705187 -0.00874841 0)
(-0.082929 -0.00293373 0)
(-0.0906652 0.00485684 0)
(-0.0926915 0.0141048 0)
(-0.0911512 0.0249902 0)
(-0.0884912 0.0368377 0)
(-0.0869656 0.0486026 0)
(-0.0875697 0.0579568 0)
(-0.0860638 0.0593705 0)
(-0.0566959 0.0455991 0)
(0.057834 0.0439075 0)
(0.383248 -0.126298 0)
(0.620211 0.455965 0)
(0.101256 0.165509 0)
(0.327518 0.549877 0)
(-0.236236 0.0278925 0)
(0.0430474 -0.0347482 0)
(0.00702025 0.0154596 0)
(-0.0277302 -0.00468483 0)
(-0.0578995 -0.00667365 0)
(-0.0775264 -0.00577557 0)
(-0.091084 -0.00103828 0)
(-0.099245 0.00563849 0)
(-0.10141 0.0135451 0)
(-0.0990277 0.0226149 0)
(-0.0938901 0.0319807 0)
(-0.0876319 0.0403653 0)
(-0.0802603 0.0454607 0)
(-0.0661883 0.0443254 0)
(-0.0239955 0.0382079 0)
(0.0913383 0.044355 0)
(0.361141 -0.175658 0)
(0.655897 0.478699 0)
(0.125919 0.631712 0)
(-0.219737 0.00105877 0)
(0.0555244 -0.0146972 0)
(0.0307838 -0.0183732 0)
(0.0045422 -0.00700927 0)
(-0.0289804 -0.00484456 0)
(-0.0602365 -0.0037865 0)
(-0.0829647 -0.00234659 0)
(-0.0980165 0.000832729 0)
(-0.106417 0.00616072 0)
(-0.10855 0.0128251 0)
(-0.105343 0.0204757 0)
(-0.0980171 0.0281714 0)
(-0.0876522 0.0345168 0)
(-0.0736451 0.0371019 0)
(-0.0500169 0.0337831 0)
(0.00268625 0.0300843 0)
(0.122445 0.0408965 0)
(0.360695 -0.216079 0)
(0.646952 0.509797 0)
(-0.158788 -0.00588332 0)
(0.0624534 0.00443519 0)
(0.0304523 -0.00855906 0)
(0.0264924 -0.00927606 0)
(-0.00379157 -0.00758933 0)
(-0.0333451 -0.00601252 0)
(-0.0634703 -0.00162861 0)
(-0.0873741 0.000328931 0)
(-0.103526 0.0027893 0)
(-0.112259 0.00666111 0)
(-0.114285 0.0120071 0)
(-0.110236 0.0183172 0)
(-0.100897 0.0246613 0)
(-0.0868722 0.0296303 0)
(-0.0671161 0.030793 0)
(-0.0356643 0.0261883 0)
(0.0249562 0.0228389 0)
(0.145232 0.0381985 0)
(0.360244 -0.237332 0)
(0.635862 0.542207 0)
(0.0526246 0.00935466 0)
(0.0217396 0.0060816 0)
(0.0328266 -0.00439701 0)
(0.0263021 -0.00524339 0)
(-0.00847721 -0.00322499 0)
(-0.0401638 -0.00233344 0)
(-0.0681914 0.000428816 0)
(-0.0913819 0.00267291 0)
(-0.107763 0.0045408 0)
(-0.11683 0.00728133 0)
(-0.118744 0.0112672 0)
(-0.113889 0.0162193 0)
(-0.102704 0.0213033 0)
(-0.0854137 0.0251783 0)
(-0.0606699 0.0255252 0)
(-0.0226981 0.0204801 0)
(0.0435297 0.0172097 0)
(0.162499 0.0360268 0)
(0.355121 -0.244703 0)
(0.62379 0.565798 0)
(-0.0109883 0.00484381 0)
(0.0199407 0.00349994 0)
(0.0390421 -0.00368813 0)
(0.0243709 -0.00149622 0)
(-0.0148196 0.00180136 0)
(-0.046951 0.00282888 0)
(-0.0735665 0.00379022 0)
(-0.0952775 0.00497142 0)
(-0.111255 0.00627204 0)
(-0.1203 0.00802591 0)
(-0.122038 0.0107352 0)
(-0.116452 0.0143276 0)
(-0.10362 0.0181749 0)
(-0.0834511 0.0210588 0)
(-0.0544225 0.0208605 0)
(-0.0110852 0.0159151 0)
(0.0592817 0.0129335 0)
(0.17574 0.034267 0)
(0.347869 -0.244308 0)
(0.60954 0.579224 0)
(-0.016131 0.000543646 0)
(0.0220341 0.00333938 0)
(0.0453686 -0.00314204 0)
(0.0196386 0.00196357 0)
(-0.0222102 0.00844039 0)
(-0.052431 0.00816965 0)
(-0.0781316 0.00783996 0)
(-0.0989364 0.00781512 0)
(-0.114187 0.00816479 0)
(-0.122876 0.00896903 0)
(-0.124293 0.0104714 0)
(-0.118038 0.0127505 0)
(-0.103788 0.0153826 0)
(-0.0811385 0.0173265 0)
(-0.0484867 0.0166673 0)
(-0.000745044 0.0120165 0)
(0.0726566 0.00969068 0)
(0.185691 0.0327464 0)
(0.340803 -0.239575 0)
(0.59437 0.583932 0)
(-0.0158366 0.000473676 0)
(0.0217223 0.00369112 0)
(0.0479048 -0.00232199 0)
(0.00546174 0.00987361 0)
(-0.0283539 0.0141113 0)
(-0.0572405 0.0136664 0)
(-0.0818936 0.0122688 0)
(-0.101939 0.0111266 0)
(-0.116517 0.0104171 0)
(-0.124669 0.010174 0)
(-0.125631 0.0105248 0)
(-0.118738 0.0115454 0)
(-0.103299 0.0129947 0)
(-0.0785802 0.014038 0)
(-0.0429403 0.0129512 0)
(0.00827781 0.00863138 0)
(0.0836691 0.00715004 0)
(0.192842 0.0312345 0)
(0.334661 -0.232614 0)
(0.579579 0.581891 0)
(-0.0167243 -0.000563828 0)
(0.0193667 0.00273294 0)
(0.0488524 -0.00257737 0)
(-0.0127386 0.00926526 0)
(-0.0339595 0.0186316 0)
(-0.0608372 0.0185357 0)
(-0.0846583 0.0167173 0)
(-0.104098 0.0146694 0)
(-0.118096 0.0129585 0)
(-0.125694 0.0116801 0)
(-0.126131 0.0109126 0)
(-0.118628 0.0107391 0)
(-0.102207 0.0110424 0)
(-0.075819 0.0112035 0)
(-0.0377771 0.0097117 0)
(0.0159857 0.0057016 0)
(0.0926817 0.00508118 0)
(0.198016 0.0296618 0)
(0.329452 -0.224866 0)
(0.565563 0.575423 0)
(-0.0164139 -0.00176613 0)
(0.0161931 0.000654199 0)
(0.0483957 -0.00324318 0)
(-0.0237194 0.00632976 0)
(-0.0408387 0.0181403 0)
(-0.0632325 0.0220418 0)
(-0.086214 0.0204848 0)
(-0.105236 0.0180462 0)
(-0.118806 0.0155801 0)
(-0.125911 0.0133963 0)
(-0.125825 0.0116062 0)
(-0.117755 0.0103185 0)
(-0.100536 0.00953007 0)
(-0.0728462 0.00880965 0)
(-0.0329271 0.00689736 0)
(0.0227031 0.00308389 0)
(0.100037 0.00331085 0)
(0.201724 0.0280035 0)
(0.325018 -0.217297 0)
(0.552176 0.566731 0)
(-0.0146749 -0.00274785 0)
(0.0140362 -0.001452 0)
(0.0465376 -0.00407176 0)
(-0.0330901 0.00466243 0)
(-0.0474632 0.0153538 0)
(-0.0654168 0.0222863 0)
(-0.0866268 0.0228105 0)
(-0.105252 0.0206847 0)
(-0.118542 0.0179261 0)
(-0.125263 0.0151131 0)
(-0.124712 0.0124879 0)
(-0.116138 0.0102212 0)
(-0.0982887 0.00842075 0)
(-0.0696258 0.00684159 0)
(-0.0283107 0.00444243 0)
(0.0288112 0.000744389 0)
(0.106042 0.00171638 0)
(0.204315 0.0262985 0)
(0.321153 -0.21047 0)
(0.53918 0.557582 0)
(-0.0121809 -0.003285 0)
(0.0126514 -0.00303549 0)
(0.0434411 -0.00508563 0)
(-0.0409508 0.00388447 0)
(-0.0545142 0.012516 0)
(-0.0676993 0.0203135 0)
(-0.0864142 0.0227696 0)
(-0.104214 0.0219493 0)
(-0.117258 0.019514 0)
(-0.1237 0.0165013 0)
(-0.122772 0.0133398 0)
(-0.11378 0.0103121 0)
(-0.0954552 0.00763321 0)
(-0.0660945 0.00525028 0)
(-0.0238276 0.00230641 0)
(0.0343162 -0.00129157 0)
(0.110748 0.000277899 0)
(0.206027 0.0246187 0)
(0.317625 -0.204653 0)
(0.526403 0.54921 0)
(-0.00895533 -0.00367238 0)
(0.0116808 -0.00432846 0)
(0.0390443 -0.00647548 0)
(-0.0477533 0.00433907 0)
(-0.061466 0.00954958 0)
(-0.0699259 0.0176742 0)
(-0.0859006 0.0206542 0)
(-0.102404 0.0212802 0)
(-0.115014 0.0198163 0)
(-0.121213 0.0171372 0)
(-0.119989 0.0138474 0)
(-0.110675 0.0103662 0)
(-0.0920194 0.00702875 0)
(-0.0622261 0.00394134 0)
(-0.0192162 0.000482615 0)
(0.0391956 -0.00304559 0)
(0.114406 -0.000966578 0)
(0.207001 0.0230392 0)
(0.31421 -0.199924 0)
(0.513743 0.542343 0)
(-0.00520733 -0.00419302 0)
(0.011484 -0.0057286 0)
(0.0329826 -0.00893941 0)
(-0.0505714 0.00693435 0)
(-0.0681457 0.00651466 0)
(-0.0714216 0.0149234 0)
(-0.0849175 0.0171964 0)
(-0.100018 0.0186736 0)
(-0.111975 0.018398 0)
(-0.117855 0.0165666 0)
(-0.116371 0.0136255 0)
(-0.106821 0.0100769 0)
(-0.0879649 0.00638291 0)
(-0.0579741 0.00277393 0)
(-0.0146255 -0.00105075 0)
(0.0433649 -0.00452418 0)
(0.117303 -0.00200676 0)
(0.207353 0.021607 0)
(0.310727 -0.196237 0)
(0.501143 0.537314 0)
(-0.00047101 -0.00487374 0)
(0.0138227 -0.00791545 0)
(0.0244163 -0.0134623 0)
(-0.0424074 0.0124728 0)
(-0.0737352 0.00368821 0)
(-0.0715203 0.0126244 0)
(-0.082955 0.012847 0)
(-0.0969562 0.0144252 0)
(-0.108267 0.0151092 0)
(-0.113741 0.0144029 0)
(-0.111973 0.0122645 0)
(-0.102239 0.00908382 0)
(-0.083297 0.00539139 0)
(-0.0532418 0.00154827 0)
(-0.0100507 -0.00244019 0)
(0.0470835 -0.00578361 0)
(0.119593 -0.00288473 0)
(0.207182 0.0203441 0)
(0.307048 -0.193484 0)
(0.488585 0.534163 0)
(0.00485771 -0.00542752 0)
(0.0192778 -0.0104012 0)
(0.00865395 0.00594715 0)
(-0.0416092 0.014998 0)
(-0.0779385 -0.000130982 0)
(-0.0694058 0.0115555 0)
(-0.0793655 0.00799044 0)
(-0.0928647 0.00881584 0)
(-0.103851 0.00999962 0)
(-0.108971 0.0104186 0)
(-0.106889 0.00940347 0)
(-0.0969787 0.00700656 0)
(-0.078039 0.00371188 0)
(-0.0480812 2.37411e-05 0)
(-0.00555368 -0.00386107 0)
(0.050504 -0.00694966 0)
(0.121415 -0.00366924 0)
(0.206566 0.0192347 0)
(0.303096 -0.191524 0)
(0.476077 0.532741 0)
(0.0108896 -0.00509433 0)
(0.0228089 0.000125935 0)
(0.0080718 0.0166116 0)
(-0.0772316 0.0124878 0)
(-0.0862807 -0.0122333 0)
(-0.0647374 0.012095 0)
(-0.0734404 0.00292765 0)
(-0.0872452 0.00207642 0)
(-0.0985157 0.0031704 0)
(-0.103558 0.00453127 0)
(-0.101205 0.00478979 0)
(-0.091135 0.00351386 0)
(-0.0721656 0.00102969 0)
(-0.0426079 -0.00207454 0)
(-0.00109629 -0.00551474 0)
(0.0536884 -0.00818184 0)
(0.122858 -0.0044367 0)
(0.205565 0.0182182 0)
(0.298828 -0.190209 0)
(0.46364 0.532789 0)
(0.0155051 -0.00155441 0)
(0.018637 0.0123723 0)
(-0.0542399 0.0170947 0)
(0.272506 0.0709134 0)
(-0.0984886 -0.0389572 0)
(-0.0584552 0.013923 0)
(-0.0646902 -0.00237217 0)
(-0.0795485 -0.00564111 0)
(-0.0919551 -0.0052976 0)
(-0.0974028 -0.00324427 0)
(-0.0949413 -0.00167443 0)
(-0.0847083 -0.0015831 0)
(-0.0659064 -0.00284433 0)
(-0.037105 -0.00494078 0)
(0.00333589 -0.00762083 0)
(0.0566577 -0.00964795 0)
(0.123968 -0.00528126 0)
(0.204216 0.0172034 0)
(0.29423 -0.189399 0)
(0.451292 0.534004 0)
(0.0132775 0.00365557 0)
(-0.0605698 0.017819 0)
(0.252037 0.00419399 0)
(-0.0846185 -0.0763973 0)
(-0.0509442 0.0194106 0)
(-0.0526206 -0.00760734 0)
(-0.0691599 -0.0139819 0)
(-0.083904 -0.015054 0)
(-0.0906217 -0.0125924 0)
(-0.0884557 -0.00977199 0)
(-0.0782721 -0.00816306 0)
(-0.0598098 -0.00792652 0)
(-0.0317266 -0.00871895 0)
(0.00758117 -0.0103532 0)
(0.0593865 -0.0115007 0)
(0.124745 -0.0063119 0)
(0.202527 0.0160725 0)
(0.289289 -0.188978 0)
(0.439034 0.536075 0)
(-0.0553555 0.0117077 0)
(0.226597 -0.00698308 0)
(-0.130879 -0.217671 0)
(-0.0456069 0.0330729 0)
(-0.0357689 -0.0112605 0)
(-0.0553094 -0.0227972 0)
(-0.0741508 -0.0261361 0)
(-0.0832186 -0.0234906 0)
(-0.0818604 -0.0194137 0)
(-0.0719714 -0.0162115 0)
(-0.0539079 -0.014321 0)
(-0.0265722 -0.0135773 0)
(0.0115741 -0.0139072 0)
(0.0617989 -0.0138913 0)
(0.125153 -0.007639 0)
(0.20048 0.0146858 0)
(0.283987 -0.188849 0)
(0.426841 0.53872 0)
(0.160025 -0.0117052 0)
(-0.116698 -0.225166 0)
(-0.0689871 0.0266507 0)
(-0.0140148 -0.0118379 0)
(-0.0354574 -0.0313416 0)
(-0.0619923 -0.0385451 0)
(-0.0752193 -0.0359262 0)
(-0.0751983 -0.0305605 0)
(-0.0658242 -0.0257377 0)
(-0.0482827 -0.0221133 0)
(-0.0217435 -0.0196672 0)
(0.0152009 -0.0184426 0)
(0.0638071 -0.0169762 0)
(0.125121 -0.00937537 0)
(0.198023 0.0128894 0)
(0.278284 -0.188939 0)
(0.414657 0.5417 0)
(0.25635 -0.24192 0)
(-0.128685 0.0158588 0)
(-0.0125284 -0.0154309 0)
(-0.00584765 -0.0380825 0)
(-0.045143 -0.052118 0)
(-0.0664509 -0.0499382 0)
(-0.0686686 -0.043131 0)
(-0.0599198 -0.0366801 0)
(-0.0430117 -0.0313104 0)
(-0.0173568 -0.0270696 0)
(0.0183367 -0.0240881 0)
(0.0652938 -0.0208897 0)
(0.124554 -0.0116412 0)
(0.195077 0.0105185 0)
(0.272112 -0.189195 0)
(0.402381 0.54483 0)
(0.309697 -0.0702617 0)
(-0.15339 -0.0222568 0)
(0.0223347 -0.040582 0)
(-0.020984 -0.0656533 0)
(-0.0555593 -0.0654769 0)
(-0.0624157 -0.0569872 0)
(-0.054473 -0.048888 0)
(-0.0381855 -0.0418365 0)
(-0.0135181 -0.0357935 0)
(0.020851 -0.0309195 0)
(0.0661273 -0.0257396 0)
(0.123335 -0.0145548 0)
(0.191531 0.00739804 0)
(0.265368 -0.189579 0)
(0.389872 0.547976 0)
(0.437431 -0.112038 0)
(-0.109301 -0.0460939 0)
(-0.00119903 -0.0744669 0)
(-0.0427364 -0.0813775 0)
(-0.0554154 -0.0719812 0)
(-0.049725 -0.0620839 0)
(-0.0339808 -0.0535195 0)
(-0.0103229 -0.0457667 0)
(0.0226236 -0.0389485 0)
(0.0661744 -0.0315946 0)
(0.121333 -0.0182287 0)
(0.18725 0.00334877 0)
(0.257908 -0.190062 0)
(0.376945 0.551054 0)
(0.694225 -0.0831075 0)
(-0.120334 -0.0765364 0)
(-0.0494169 -0.0918733 0)
(-0.0472873 -0.0875128 0)
(-0.044708 -0.0760351 0)
(-0.0306538 -0.0660374 0)
(-0.00791227 -0.0568162 0)
(0.02355 -0.0481053 0)
(0.0653121 -0.0384695 0)
(0.118417 -0.0227624 0)
(0.182071 -0.00180399 0)
(0.249544 -0.190619 0)
(0.363366 0.55402 0)
(0.745353 -0.0457967 0)
(-0.119851 -0.0859741 0)
(-0.0567211 -0.0992669 0)
(-0.0373714 -0.0908698 0)
(-0.0273831 -0.0790822 0)
(-0.00652548 -0.0686208 0)
(0.0235054 -0.0582149 0)
(0.0634324 -0.0463005 0)
(0.114463 -0.0282268 0)
(0.175812 -0.00821558 0)
(0.240047 -0.191216 0)
(0.348859 0.556854 0)
(0.347459 -0.0358809 0)
(-0.129572 -0.0961394 0)
(-0.0419393 -0.104861 0)
(-0.0211882 -0.0931957 0)
(-0.00552163 -0.0808129 0)
(0.0222829 -0.0689665 0)
(0.0604099 -0.0549092 0)
(0.109356 -0.0346288 0)
(0.168283 -0.015994 0)
(0.229151 -0.191811 0)
(0.333097 0.559558 0)
(0.372277 -0.0874016 0)
(-0.134723 -0.107093 0)
(-0.0212724 -0.109683 0)
(-0.00191989 -0.0939154 0)
(0.0203121 -0.0799874 0)
(0.0560368 -0.0639647 0)
(0.102967 -0.0418468 0)
(0.159298 -0.0251471 0)
(0.216575 -0.192345 0)
(0.31571 0.56215 0)
(0.399175 -0.118833 0)
(-0.136114 -0.121099 0)
(5.02307e-05 -0.111132 0)
(0.0197582 -0.0916392 0)
(0.0504928 -0.0730294 0)
(0.0950984 -0.0495321 0)
(0.148685 -0.0354918 0)
(0.202054 -0.192738 0)
(0.296285 0.564668 0)
(0.422597 -0.13926 0)
(-0.131587 -0.131139 0)
(0.0189824 -0.107497 0)
(0.0448749 -0.0822745 0)
(0.0857907 -0.0570425 0)
(0.136328 -0.0465069 0)
(0.185409 -0.19289 0)
(0.274369 0.567191 0)
(0.43862 -0.151953 0)
(-0.114597 -0.132953 0)
(0.0366034 -0.0952244 0)
(0.0752636 -0.0640032 0)
(0.122512 -0.0571466 0)
(0.166704 -0.192673 0)
(0.249481 0.569884 0)
(0.436852 -0.154532 0)
(-0.0905212 -0.121319 0)
(0.059129 -0.0733931 0)
(0.107704 -0.0660841 0)
(0.146785 -0.191889 0)
(0.221116 0.573093 0)
(0.425837 -0.141436 0)
(-0.0598513 -0.0968793 0)
(0.0875277 -0.0747209 0)
(0.127666 -0.190304 0)
(0.188977 0.577439 0)
(0.409363 -0.119088 0)
(-0.0186726 -0.0957898 0)
(0.109113 -0.190892 0)
(0.153515 0.583264 0)
(0.394147 -0.146336 0)
(0.0276911 -0.20796 0)
(0.114867 0.591627 0)
(0.408435 -0.349049 0)
(-0.0953217 0.660342 0)
(0.633303 0.966037 0)
)
;

boundaryField
{
    floor
    {
        type            noSlip;
    }
    ceiling
    {
        type            noSlip;
    }
    sWall
    {
        type            noSlip;
    }
    nWall
    {
        type            noSlip;
    }
    sideWalls
    {
        type            empty;
    }
    glass1
    {
        type            noSlip;
    }
    glass2
    {
        type            noSlip;
    }
    sun
    {
        type            noSlip;
    }
    Table_master
    {
        type            noSlip;
    }
    Table_slave
    {
        type            noSlip;
    }
    inlet
    {
        type            fixedValue;
        value           uniform (0.1 -0.1 0);
    }
    outlet
    {
        type            zeroGradient;
    }
}


// ************************************************************************* //
