/*--------------------------------*- C++ -*----------------------------------*\
  =========                 |
  \\      /  F ield         | OpenFOAM: The Open Source CFD Toolbox
   \\    /   O peration     | Website:  https://openfoam.org
    \\  /    A nd           | Version:  6
     \\/     M anipulation  |
\*---------------------------------------------------------------------------*/
FoamFile
{
    version     2.0;
    format      ascii;
    class       volVectorField;
    location    "4200";
    object      U;
}
// * * * * * * * * * * * * * * * * * * * * * * * * * * * * * * * * * * * * * //

dimensions      [0 1 -1 0 0 0 0];

internalField   nonuniform List<vector> 
662
(
(0.0400983 0.0870104 0)
(-0.169844 0.0233615 0)
(-0.191618 0.0170412 0)
(-0.222399 0.0120874 0)
(-0.246494 0.00681684 0)
(-0.263544 0.00124912 0)
(-0.272392 -0.00491699 0)
(-0.270681 -0.0120778 0)
(-0.25603 -0.0208128 0)
(-0.226566 -0.0307874 0)
(-0.182747 -0.0402127 0)
(-0.129396 -0.0457091 0)
(-0.0749994 -0.0435455 0)
(-0.0290359 -0.031706 0)
(-0.0162455 -0.00284473 0)
(-0.0107279 0.0110381 0)
(-0.0386638 -0.0179835 0)
(-0.0151369 -0.0299092 0)
(0.0134309 -0.0257495 0)
(0.0336192 -0.0181665 0)
(0.0484434 -0.00973621 0)
(0.05738 -0.0053147 0)
(0.0614257 -0.00374343 0)
(0.0630192 -0.00317617 0)
(0.0638156 -0.00283432 0)
(0.0642627 -0.00256775 0)
(0.0643407 -0.00230432 0)
(0.0638883 -0.00186952 0)
(0.062448 -0.000923639 0)
(0.0589917 0.000975401 0)
(0.0523857 0.00309109 0)
(0.0470674 0.00518064 0)
(-0.0141864 0.02296 0)
(0.232081 0.17916 0)
(-0.159275 0.0626935 0)
(-0.148978 0.0515143 0)
(-0.180218 0.0420782 0)
(-0.20324 0.0320149 0)
(-0.219889 0.0208853 0)
(-0.229279 0.00771182 0)
(-0.229147 -0.00861455 0)
(-0.217167 -0.02863 0)
(-0.191878 -0.0510472 0)
(-0.153755 -0.071568 0)
(-0.10782 -0.0826419 0)
(-0.0619672 -0.0781621 0)
(-0.0221692 -0.0590479 0)
(0.0105569 -0.0288594 0)
(0.0376084 -0.000477894 0)
(0.0530718 0.0326017 0)
(-0.0148641 0.0723247 0)
(0.0690855 0.0455696 0)
(0.0113976 -0.0222554 0)
(0.0276751 -0.0387772 0)
(0.0419636 -0.0362292 0)
(0.0542547 -0.0275474 0)
(0.0605401 -0.0123031 0)
(0.0621408 -0.0029891 0)
(0.0622117 0.000504675 0)
(0.0623931 0.0017729 0)
(0.0627261 0.00246975 0)
(0.0629575 0.00295729 0)
(0.0630354 0.00341549 0)
(0.0629466 0.00415177 0)
(0.0622506 0.00595983 0)
(0.0588709 0.010992 0)
(0.0501849 0.01543 0)
(0.0492269 0.0189689 0)
(-0.0607582 0.0496155 0)
(0.409461 0.267142 0)
(-0.182813 0.0990137 0)
(-0.104193 0.081621 0)
(-0.134036 0.0643277 0)
(-0.152648 0.0477431 0)
(-0.166889 0.02992 0)
(-0.176043 0.00902519 0)
(-0.177368 -0.016394 0)
(-0.167647 -0.0471956 0)
(-0.145772 -0.0815444 0)
(-0.112529 -0.112212 0)
(-0.0738868 -0.126751 0)
(-0.0373051 -0.117536 0)
(-0.00601409 -0.0897764 0)
(0.0189799 -0.0535186 0)
(0.0354924 -0.0229978 0)
(0.0421439 0.00989323 0)
(-0.0254204 0.0631456 0)
(0.126505 -0.00858655 0)
(0.0759503 -0.0333532 0)
(0.0673865 -0.0428836 0)
(0.0698932 -0.042154 0)
(0.0740165 -0.0379225 0)
(0.0751616 -0.0282516 0)
(0.06584 -0.0183516 0)
(0.0587787 -0.0130321 0)
(0.0560492 -0.0100705 0)
(0.0552077 -0.00816265 0)
(0.0548249 -0.00687109 0)
(0.0547308 -0.00590409 0)
(0.055364 -0.0047846 0)
(0.057646 -0.00146183 0)
(0.0563695 0.014779 0)
(0.0446829 0.025755 0)
(0.0556801 0.0334418 0)
(-0.104185 0.0755492 0)
(0.564465 0.337522 0)
(-0.227454 0.130696 0)
(-0.0579999 0.105048 0)
(-0.0863461 0.0815612 0)
(-0.097158 0.0614636 0)
(-0.105936 0.0401782 0)
(-0.112784 0.0141979 0)
(-0.11422 -0.0190374 0)
(-0.105481 -0.0603257 0)
(-0.0861777 -0.1065 0)
(-0.0584935 -0.146787 0)
(-0.0293636 -0.163413 0)
(-0.00426889 -0.148689 0)
(0.0167599 -0.113794 0)
(0.0332937 -0.0725085 0)
(0.046554 -0.0319077 0)
(0.0623673 0.00857879 0)
(0.0626002 0.05221 0)
(0.106129 0.0600661 0)
(0.105106 -0.00376499 0)
(0.0903052 -0.0301168 0)
(0.0823958 -0.0378312 0)
(0.0765924 -0.038012 0)
(0.069374 -0.033245 0)
(0.0682164 -0.019976 0)
(0.07787 -0.0130824 0)
(0.0858665 -0.0094426 0)
(0.0903822 -0.00724761 0)
(0.0928879 -0.00544384 0)
(0.0937043 -0.00349632 0)
(0.0916176 -0.000963173 0)
(0.0852794 0.0025695 0)
(0.0727492 0.00767932 0)
(0.0574074 0.0249897 0)
(0.0418833 0.0404934 0)
(0.0641742 0.0533329 0)
(-0.141199 0.0968984 0)
(0.685134 0.394651 0)
(-0.27875 0.14725 0)
(-0.0155883 0.115386 0)
(-0.0387817 0.0890617 0)
(-0.0407044 0.067996 0)
(-0.0423814 0.0460826 0)
(-0.0450801 0.0183375 0)
(-0.0434734 -0.0199377 0)
(-0.0331382 -0.0705464 0)
(-0.015328 -0.126405 0)
(0.00517231 -0.172551 0)
(0.02195 -0.186998 0)
(0.0325628 -0.166524 0)
(0.0409003 -0.128809 0)
(0.0478971 -0.0847449 0)
(0.0548882 -0.0420159 0)
(0.0661913 -0.00457781 0)
(0.0805898 0.0168564 0)
(0.0947661 -0.0021453 0)
(0.09355 -0.0219021 0)
(0.085595 -0.0298098 0)
(0.0759028 -0.0317248 0)
(0.0668782 -0.030377 0)
(0.0592331 -0.0251022 0)
(0.0566217 -0.0139429 0)
(0.0592668 -0.00752655 0)
(0.062725 -0.00499385 0)
(0.0656612 -0.00364249 0)
(0.0682864 -0.00182938 0)
(0.070464 0.00134931 0)
(0.0711676 0.00615983 0)
(0.0694215 0.0128442 0)
(0.0648336 0.021993 0)
(0.0582764 0.0365248 0)
(0.0472608 0.0530211 0)
(0.0756455 0.0726438 0)
(-0.011688 0.10307 0)
(0.0558706 0.156519 0)
(-0.0864661 0.0799392 0)
(-0.282273 0.00264818 0)
(0.744774 0.452153 0)
(-0.295609 0.0461538 0)
(0.0389543 0.0752631 0)
(0.0190783 0.0708858 0)
(0.0222336 0.0616046 0)
(0.0243824 0.0438128 0)
(0.024548 0.0157973 0)
(0.0314721 -0.0270158 0)
(0.0444447 -0.0835154 0)
(0.0597119 -0.141867 0)
(0.0705431 -0.184504 0)
(0.0738259 -0.195765 0)
(0.0690125 -0.170015 0)
(0.0622853 -0.130084 0)
(0.0560594 -0.0860074 0)
(0.0526829 -0.0453305 0)
(0.0546477 -0.0133181 0)
(0.0625419 0.00315482 0)
(0.0679544 -0.00140299 0)
(0.0660942 -0.0106112 0)
(0.0591447 -0.0178234 0)
(0.0504545 -0.0214234 0)
(0.0423113 -0.0217777 0)
(0.0358102 -0.0189668 0)
(0.0326603 -0.0134627 0)
(0.0331586 -0.0100082 0)
(0.0354681 -0.00873355 0)
(0.0385574 -0.00795101 0)
(0.0421923 -0.00627553 0)
(0.046145 -0.0026069 0)
(0.0503845 0.00382752 0)
(0.0532301 0.012766 0)
(0.0549138 0.0240519 0)
(0.056704 0.0383348 0)
(0.0562427 0.0546541 0)
(0.0800338 0.0760353 0)
(0.0648426 0.0890641 0)
(0.101291 0.0980224 0)
(0.119701 0.0573628 0)
(-0.139057 -0.0315246 0)
(0.812384 0.232242 0)
(0.24965 0.234302 0)
(0.204822 0.100984 0)
(0.146323 0.077337 0)
(0.115348 0.0656491 0)
(0.0991575 0.0485379 0)
(0.094939 0.0204719 0)
(0.102827 -0.0218223 0)
(0.11731 -0.0768798 0)
(0.129847 -0.134731 0)
(0.133259 -0.178292 0)
(0.12364 -0.191586 0)
(0.0967071 -0.153217 0)
(0.0718499 -0.114573 0)
(0.0503919 -0.0735201 0)
(0.0356197 -0.0375855 0)
(0.0287699 -0.0118879 0)
(0.0289817 0.000622427 0)
(0.0301648 3.67327e-05 0)
(0.0284467 -0.0057038 0)
(0.0235796 -0.0112489 0)
(0.0172478 -0.0145098 0)
(0.0109946 -0.0154749 0)
(0.0059324 -0.0145178 0)
(0.00328035 -0.0124101 0)
(0.00330794 -0.0113001 0)
(0.00503641 -0.0113438 0)
(0.00776293 -0.0115072 0)
(0.0113579 -0.0107231 0)
(0.0159397 -0.00790027 0)
(0.0221201 -0.00175313 0)
(0.0300969 0.00800249 0)
(0.0374724 0.0194159 0)
(0.0460197 0.0321804 0)
(0.0547619 0.0456156 0)
(0.0759946 0.0624611 0)
(0.0897678 0.0682974 0)
(0.122532 0.0625035 0)
(0.167329 0.0502592 0)
(-0.018521 0.0949539 0)
(0.590118 0.000823887 0)
(0.290313 0.196855 0)
(0.406947 0.147326 0)
(0.377489 0.1367 0)
(0.318849 0.113735 0)
(0.271912 0.0770535 0)
(0.242662 0.0314375 0)
(0.228136 -0.0238242 0)
(0.221034 -0.0822611 0)
(0.211018 -0.133035 0)
(0.188851 -0.162693 0)
(0.153023 -0.16279 0)
(0.0917106 -0.116444 0)
(0.0540307 -0.0831467 0)
(0.0224788 -0.0488121 0)
(0.00168044 -0.0212629 0)
(-0.00769774 -0.00489611 0)
(-0.00953456 0.00155045 0)
(-0.00930673 0.000993761 0)
(-0.0104478 -0.0027443 0)
(-0.0136846 -0.00652997 0)
(-0.0181155 -0.00909105 0)
(-0.0226779 -0.0104237 0)
(-0.0264741 -0.0109063 0)
(-0.0287944 -0.0111275 0)
(-0.0296271 -0.011842 0)
(-0.0295397 -0.0130111 0)
(-0.0289258 -0.014136 0)
(-0.0277925 -0.0146651 0)
(-0.0258259 -0.0140085 0)
(-0.0222678 -0.0114159 0)
(-0.01482 -0.00602162 0)
(-0.00228013 0.00231268 0)
(0.00962768 0.0113582 0)
(0.0218982 0.0181055 0)
(0.0404671 0.0252181 0)
(0.0574657 0.0216622 0)
(0.0817668 0.00976095 0)
(0.149084 0.0569162 0)
(-0.462584 0.214414 0)
(0.405895 0.13634 0)
(0.408465 0.16093 0)
(0.37688 0.156049 0)
(0.3492 0.115227 0)
(0.323704 0.0581377 0)
(0.302082 -0.00344661 0)
(0.275005 -0.0604598 0)
(0.237045 -0.101642 0)
(0.186908 -0.119041 0)
(0.130196 -0.11211 0)
(0.0476181 -0.0699939 0)
(0.00528492 -0.0442659 0)
(-0.0249035 -0.0208985 0)
(-0.0389847 -0.00787403 0)
(-0.0446252 -0.0010462 0)
(-0.0458031 0.00153184 0)
(-0.0458761 0.00105869 0)
(-0.0468204 -0.000934937 0)
(-0.0491917 -0.00321429 0)
(-0.0525396 -0.00519022 0)
(-0.0562189 -0.00679074 0)
(-0.0597063 -0.00814221 0)
(-0.0627578 -0.00943404 0)
(-0.0655611 -0.0108086 0)
(-0.0685599 -0.0120997 0)
(-0.0721636 -0.0129389 0)
(-0.0767317 -0.0128481 0)
(-0.0827022 -0.0112134 0)
(-0.0907158 -0.00722196 0)
(-0.101473 -8.88798e-06 0)
(-0.113563 0.0106126 0)
(-0.128054 0.0243281 0)
(-0.151632 0.0410567 0)
(-0.186744 0.0598473 0)
(-0.235838 0.0770739 0)
(-0.292672 0.089958 0)
(-0.374131 0.09685 0)
(-0.660413 0.0924553 0)
(0.168915 -0.115592 0)
(0.249855 0.218819 0)
(0.238846 0.175839 0)
(0.24007 0.130427 0)
(0.235899 0.0747262 0)
(0.221222 0.0187564 0)
(0.194613 -0.0249495 0)
(0.15244 -0.052055 0)
(0.101236 -0.0620672 0)
(0.0481662 -0.0560901 0)
(-0.0284289 -0.0267095 0)
(-0.0539814 -0.0156468 0)
(-0.0683608 -0.0086302 0)
(-0.0749583 -0.00502959 0)
(-0.0774173 -0.00322124 0)
(-0.077593 -0.00300782 0)
(-0.0776106 -0.00409051 0)
(-0.078377 -0.00594681 0)
(-0.0800731 -0.00801014 0)
(-0.0827338 -0.00984859 0)
(-0.0859174 -0.0113636 0)
(-0.0893666 -0.0125074 0)
(-0.0930805 -0.0132785 0)
(-0.0972362 -0.0136735 0)
(-0.102032 -0.0135496 0)
(-0.107538 -0.0125931 0)
(-0.113635 -0.0103416 0)
(-0.11995 -0.00623869 0)
(-0.125881 0.000330626 0)
(-0.130596 0.00945171 0)
(-0.134327 0.0219329 0)
(-0.137304 0.038532 0)
(-0.140594 0.0588956 0)
(-0.144474 0.0804342 0)
(-0.144586 0.0956704 0)
(-0.12508 0.0901235 0)
(-0.0693341 0.0348303 0)
(-0.206246 -0.181688 0)
(0.400006 -0.326606 0)
(-0.0887968 -0.489567 0)
(-0.288947 -0.0210741 0)
(-0.123094 0.16526 0)
(-0.0363926 0.146283 0)
(0.011251 0.111438 0)
(0.036497 0.0705472 0)
(0.0431418 0.030203 0)
(0.0330598 0.00087065 0)
(0.0105657 -0.0137709 0)
(-0.02266 -0.0184096 0)
(-0.0534918 -0.0162335 0)
(-0.0847555 0.0171282 0)
(-0.0973883 0.0236479 0)
(-0.102913 0.0264982 0)
(-0.104949 0.0285569 0)
(-0.105125 0.0305478 0)
(-0.104492 0.0327854 0)
(-0.103728 0.0351706 0)
(-0.103238 0.0374461 0)
(-0.10318 0.0391937 0)
(-0.103539 0.0398285 0)
(-0.104339 0.039361 0)
(-0.105572 0.038224 0)
(-0.107235 0.0366331 0)
(-0.109309 0.034745 0)
(-0.111739 0.0326842 0)
(-0.114405 0.0305547 0)
(-0.117106 0.0284342 0)
(-0.119461 0.0263096 0)
(-0.120701 0.0251224 0)
(-0.119671 0.0264764 0)
(-0.114851 0.0315683 0)
(-0.104825 0.0414213 0)
(-0.0894671 0.0562478 0)
(-0.0701016 0.0732847 0)
(-0.0464341 0.0833879 0)
(0.0197569 0.0511895 0)
(0.150857 -0.05591 0)
(-0.0519736 -0.0616249 0)
(0.290489 -0.233093 0)
(-0.274016 -0.13704 0)
(-0.409446 -0.0200012 0)
(-0.371429 0.0683682 0)
(-0.282328 0.0831821 0)
(-0.202164 0.0719468 0)
(-0.143205 0.0529456 0)
(-0.109855 0.0344865 0)
(-0.0995431 0.0229364 0)
(-0.102529 0.0197932 0)
(-0.109254 0.0177747 0)
(-0.114121 -0.000676089 0)
(-0.125758 -0.0788253 0)
(-0.124453 -0.0817778 0)
(-0.1232 -0.0841416 0)
(-0.121512 -0.0872873 0)
(-0.119823 -0.091022 0)
(-0.118158 -0.0954931 0)
(-0.116585 -0.100651 0)
(-0.115227 -0.105892 0)
(-0.114208 -0.110321 0)
(-0.113681 -0.113123 0)
(-0.113772 -0.114024 0)
(-0.11447 -0.113334 0)
(-0.115644 -0.111197 0)
(-0.117111 -0.107758 0)
(-0.118633 -0.10308 0)
(-0.119891 -0.09711 0)
(-0.120475 -0.0896404 0)
(-0.119885 -0.0802764 0)
(-0.117332 -0.0695552 0)
(-0.111175 -0.057717 0)
(-0.0988213 -0.0446044 0)
(-0.0776879 -0.0296609 0)
(-0.0473697 -0.0122508 0)
(-0.00737196 0.00769875 0)
(0.0372033 0.00709735 0)
(0.106258 -0.0521145 0)
(0.124263 -0.0967318 0)
(-0.522261 0.00412993 0)
(0.474085 0.386217 0)
(0.196242 0.133305 0)
(0.174501 0.086651 0)
(0.127509 0.0714092 0)
(0.104712 0.0592421 0)
(0.0947464 0.037139 0)
(0.0963095 0.00141569 0)
(0.109977 -0.0479654 0)
(0.124259 -0.106014 0)
(0.132888 -0.159063 0)
(0.129668 -0.18916 0)
(0.114539 -0.185611 0)
(0.287205 0.0905213 0)
(0.370731 0.172222 0)
(0.401482 0.1395 0)
(0.34784 0.128047 0)
(0.293195 0.096525 0)
(0.255029 0.0555332 0)
(0.23434 0.00486939 0)
(0.224229 -0.0531537 0)
(0.217087 -0.109323 0)
(0.201764 -0.15117 0)
(0.17236 -0.166493 0)
(0.132363 -0.152251 0)
(0.384663 0.13822 0)
(0.393609 0.164838 0)
(0.362826 0.138619 0)
(0.335932 0.0878866 0)
(0.312681 0.0273833 0)
(0.28958 -0.033181 0)
(0.257659 -0.0837017 0)
(0.213253 -0.113502 0)
(0.158922 -0.118423 0)
(0.102532 -0.101279 0)
(0.299665 0.237489 0)
(0.23983 0.195869 0)
(0.239609 0.154696 0)
(0.239062 0.103393 0)
(0.230139 0.0459151 0)
(0.210264 -0.00517212 0)
(0.175063 -0.0405988 0)
(0.127523 -0.0591889 0)
(0.0745765 -0.0609602 0)
(0.0240612 -0.0483589 0)
(0.0251855 -0.427621 0)
(-0.257752 -0.366812 0)
(-0.169358 0.130251 0)
(-0.0719045 0.160764 0)
(-0.00989719 0.130148 0)
(0.0261583 0.0915779 0)
(0.0421246 0.0496424 0)
(0.0396844 0.0135719 0)
(0.0237374 -0.00801684 0)
(-0.00563192 -0.0170835 0)
(-0.0392399 -0.0183608 0)
(-0.064031 -0.00781725 0)
(-0.237805 -0.167585 0)
(-0.366538 -0.0842341 0)
(-0.405945 0.0354541 0)
(-0.327158 0.0814561 0)
(-0.240105 0.0791482 0)
(-0.169637 0.0628864 0)
(-0.123301 0.0431739 0)
(-0.102302 0.027592 0)
(-0.10009 0.0205446 0)
(-0.105813 0.0194108 0)
(-0.112304 0.0126472 0)
(-0.116251 -0.0287182 0)
(0.763301 0.466605 0)
(0.317383 0.263832 0)
(0.351056 0.153663 0)
(0.280384 0.111499 0)
(0.22348 0.0868679 0)
(0.185589 0.0590324 0)
(0.166894 0.0225955 0)
(0.164029 -0.0263827 0)
(0.169894 -0.0828815 0)
(0.173425 -0.137254 0)
(0.165703 -0.173868 0)
(0.143337 -0.180219 0)
(0.79032 -0.1719 0)
(0.153799 0.237857 0)
(0.39886 0.164922 0)
(0.42937 0.163049 0)
(0.378256 0.142445 0)
(0.334314 0.0988743 0)
(0.302016 0.0450777 0)
(0.280228 -0.0149849 0)
(0.260734 -0.0744023 0)
(0.235521 -0.121103 0)
(0.197861 -0.144148 0)
(0.149774 -0.139591 0)
(0.310847 0.0910193 0)
(0.359608 0.187691 0)
(0.329634 0.16653 0)
(0.315708 0.125594 0)
(0.300455 0.0681806 0)
(0.28178 0.00829958 0)
(0.252806 -0.0429714 0)
(0.208444 -0.0772167 0)
(0.153408 -0.090317 0)
(0.0959181 -0.0831108 0)
(0.439591 0.215173 0)
(0.0640109 0.21212 0)
(0.108372 0.169877 0)
(0.132213 0.126145 0)
(0.141124 0.0759776 0)
(0.1342 0.0266044 0)
(0.11464 -0.00952276 0)
(0.0819028 -0.0302899 0)
(0.0396571 -0.0376336 0)
(-0.00326466 -0.0336164 0)
(0.496085 -0.253497 0)
(-0.19208 -0.257639 0)
(-0.351737 -0.0683637 0)
(-0.267778 0.0956108 0)
(-0.173653 0.106988 0)
(-0.106519 0.0873545 0)
(-0.0619582 0.0582362 0)
(-0.040283 0.0283888 0)
(-0.0402697 0.0070379 0)
(-0.0537496 -0.00204554 0)
(-0.0745524 -0.00468672 0)
(-0.0907783 -0.00363941 0)
(0.329285 -0.247348 0)
(-0.346011 -0.155207 0)
(-0.473682 -0.0993249 0)
(-0.453175 -0.0513654 0)
(-0.367719 -0.035904 0)
(-0.279521 -0.0367119 0)
(-0.210563 -0.0426979 0)
(-0.166255 -0.048529 0)
(-0.141723 -0.0526159 0)
(-0.127176 -0.0571357 0)
(-0.116254 -0.0647206 0)
(-0.118607 -0.0699409 0)
(0.34377 0.291204 0)
(0.354949 0.201082 0)
(0.316024 0.126823 0)
(0.24956 0.0992302 0)
(0.201755 0.0739469 0)
(0.173777 0.0425479 0)
(0.163572 -0.000157093 0)
(0.166645 -0.0536077 0)
(0.172582 -0.110609 0)
(0.171318 -0.158274 0)
(0.156158 -0.180955 0)
(0.128525 -0.17173 0)
(-0.224486 0.189184 0)
(0.297018 0.191227 0)
(0.435943 0.157575 0)
(0.404401 0.157641 0)
(0.354949 0.122242 0)
(0.316549 0.0730226 0)
(0.290628 0.0156275 0)
(0.270577 -0.0454701 0)
(0.249431 -0.100109 0)
(0.218334 -0.136028 0)
(0.174678 -0.145214 0)
(0.124244 -0.127999 0)
(0.378329 0.19034 0)
(0.341144 0.178163 0)
(0.322416 0.149003 0)
(0.308391 0.0980633 0)
(0.291767 0.0376754 0)
(0.269387 -0.0190121 0)
(0.232368 -0.0626144 0)
(0.181789 -0.0864413 0)
(0.124408 -0.0891003 0)
(0.0676952 -0.0731509 0)
(0.0732539 0.212631 0)
(0.0881913 0.191592 0)
(0.122326 0.14868 0)
(0.138577 0.101652 0)
(0.139671 0.0504226 0)
(0.124986 0.00648142 0)
(0.0998794 -0.0216131 0)
(0.0614523 -0.0355608 0)
(0.0177761 -0.0369688 0)
(-0.022643 -0.0277268 0)
(-0.171397 -0.282277 0)
(-0.308968 -0.189109 0)
(-0.32102 0.0387895 0)
(-0.216448 0.109142 0)
(-0.137307 0.0988876 0)
(-0.0814956 0.0735247 0)
(-0.0482122 0.042786 0)
(-0.037926 0.0161571 0)
(-0.045813 0.0012287 0)
(-0.0637025 -0.00379439 0)
(-0.0847353 -0.00478986 0)
(-0.0908313 0.000825788 0)
(-0.28577 -0.178921 0)
(-0.430253 -0.12765 0)
(-0.478235 -0.0724507 0)
(-0.413317 -0.0403519 0)
(-0.322047 -0.0352124 0)
(-0.242021 -0.0394533 0)
(-0.185437 -0.0458374 0)
(-0.152105 -0.0507255 0)
(-0.133776 -0.0545768 0)
(-0.121287 -0.0606735 0)
(-0.114074 -0.0678911 0)
(-0.127491 -0.0746941 0)
)
;

boundaryField
{
    floor
    {
        type            noSlip;
    }
    ceiling
    {
        type            noSlip;
    }
    sWall
    {
        type            noSlip;
    }
    nWall
    {
        type            noSlip;
    }
    sideWalls
    {
        type            empty;
    }
    glass1
    {
        type            noSlip;
    }
    glass2
    {
        type            noSlip;
    }
    sun
    {
        type            noSlip;
    }
    Table_master
    {
        type            noSlip;
    }
    Table_slave
    {
        type            noSlip;
    }
    inlet
    {
        type            fixedValue;
        value           uniform (0.5 0 0);
    }
    outlet
    {
        type            zeroGradient;
    }
}


// ************************************************************************* //
