/*--------------------------------*- C++ -*----------------------------------*\
  =========                 |
  \\      /  F ield         | OpenFOAM: The Open Source CFD Toolbox
   \\    /   O peration     | Website:  https://openfoam.org
    \\  /    A nd           | Version:  6
     \\/     M anipulation  |
\*---------------------------------------------------------------------------*/
FoamFile
{
    version     2.0;
    format      ascii;
    class       volScalarField;
    location    "950";
    object      k;
}
// * * * * * * * * * * * * * * * * * * * * * * * * * * * * * * * * * * * * * //

dimensions      [0 2 -2 0 0 0 0];

internalField   nonuniform List<scalar> 
458
(
0.00226803
0.00268635
0.00280916
0.00308438
0.00334926
0.00361012
0.00388086
0.00416575
0.00440611
0.00456051
0.00457798
0.00441309
0.00402216
0.00325454
0.00187353
0.000457649
0.000628909
0.000808386
0.000878914
0.000851636
0.000745779
0.000636846
0.000546665
0.000474115
0.00041529
0.000367106
0.000327383
0.000294061
0.000265268
0.000239329
0.000214625
0.000200579
0.000169421
0.00412341
0.00755227
0.00415092
0.00437495
0.00471695
0.0051364
0.00563367
0.00619816
0.00680228
0.00731475
0.00759002
0.00753246
0.00712482
0.00635525
0.0051389
0.00326449
0.00224696
0.00149575
0.000450311
0.000973183
0.00130338
0.00145854
0.00147293
0.00125956
0.00102449
0.000834128
0.000688827
0.000577387
0.000490711
0.000421547
0.000364726
0.000317461
0.000283528
0.000264393
0.000493831
0.000292746
0.00609567
0.0136493
0.00491231
0.00472593
0.00494272
0.00528737
0.00575242
0.00634271
0.00699596
0.00755273
0.00789477
0.00795196
0.0076952
0.0070618
0.00603801
0.00488913
0.00391923
0.00208669
0.00106813
0.00139974
0.00160371
0.0017306
0.00172308
0.00134736
0.0010327
0.000802744
0.00063769
0.000518325
0.000430659
0.000365378
0.000316505
0.000280917
0.000262158
0.000265452
0.00078027
0.000408843
0.00835953
0.0222363
0.00592809
0.00470791
0.00474761
0.00501778
0.00547519
0.00616981
0.00689455
0.00746524
0.00783619
0.00795609
0.00775048
0.00714738
0.00628823
0.00543664
0.0046332
0.00350091
0.00276955
0.00250729
0.00237447
0.00233858
0.00229006
0.00215237
0.00170986
0.00143673
0.0012643
0.0011441
0.00104713
0.000954973
0.000871407
0.000787262
0.000694317
0.00053026
0.000422798
0.00113246
0.000542374
0.0110419
0.0339568
0.00842518
0.00475088
0.00448408
0.00470943
0.00530111
0.0063569
0.00718669
0.00774133
0.00809718
0.0081995
0.00790252
0.0071842
0.00621729
0.0053102
0.00458055
0.00397921
0.00379523
0.00348007
0.00325309
0.00307127
0.0028599
0.00259098
0.0023033
0.00210716
0.00198705
0.00189231
0.00179024
0.00166145
0.00149214
0.00129933
0.00109402
0.000865778
0.00066483
0.000922214
0.00106378
0.00096941
0.00108636
0.00128347
0.0143264
0.0466877
0.0149517
0.00592464
0.00474381
0.00478472
0.00570957
0.00726902
0.00803359
0.00847608
0.00874065
0.00874985
0.00832233
0.0073805
0.0061259
0.00496722
0.00418458
0.0038425
0.00381479
0.00382378
0.00373261
0.00350956
0.00319011
0.00283573
0.00254858
0.00239598
0.00232225
0.00226361
0.00218544
0.0020655
0.00187865
0.00164909
0.00140051
0.00114691
0.000935704
0.000900774
0.00103009
0.00105445
0.00165139
0.00138072
0.0179762
0.0550465
0.0270786
0.0123634
0.00831131
0.00741529
0.00850827
0.00921214
0.00948796
0.00964758
0.00973183
0.00958576
0.0089492
0.007711
0.00611146
0.00469992
0.0038879
0.00373687
0.00389917
0.00398357
0.00385446
0.00355133
0.00317199
0.00281285
0.00256824
0.0024692
0.00245223
0.00245748
0.00245531
0.00242482
0.00233629
0.00214751
0.00191093
0.0016592
0.00145744
0.00136477
0.0014511
0.00168161
0.00223401
0.00194893
0.0189411
0.0568403
0.0383017
0.0271736
0.0197458
0.0158857
0.0137288
0.0122911
0.0115385
0.0112144
0.011012
0.0106122
0.00964844
0.00799631
0.00597534
0.00439337
0.00367818
0.00365615
0.00378062
0.00375098
0.00351766
0.00317094
0.00282097
0.00255132
0.00240868
0.00238419
0.00243169
0.00251775
0.00263043
0.00276725
0.00292554
0.00306715
0.00310955
0.0031392
0.00329238
0.00386928
0.00511939
0.00681563
0.0128311
0.00467717
0.0182045
0.0264661
0.0243621
0.0217105
0.0188865
0.0164651
0.0146554
0.0135925
0.0130891
0.0127708
0.0123602
0.0115989
0.0100732
0.0077704
0.00516005
0.00385839
0.00340332
0.00331028
0.00325371
0.00309205
0.00282414
0.00252843
0.00228322
0.00213483
0.00208935
0.00212354
0.0022098
0.0023332
0.00249009
0.00268167
0.00290933
0.00317121
0.00348981
0.00390102
0.00444788
0.00509752
0.00569681
0.00606934
0.00624886
0.00408136
0.00718412
0.0110938
0.0135425
0.0147744
0.0154397
0.0157113
0.0153815
0.0144567
0.0132173
0.0115887
0.00880985
0.00585867
0.00403621
0.00322566
0.0028816
0.00270051
0.00252818
0.00231834
0.00209105
0.00188822
0.00175209
0.00169312
0.00169783
0.00174765
0.00182975
0.00193921
0.00207745
0.0022511
0.00247286
0.00276576
0.00313122
0.00356701
0.00405091
0.00449041
0.00471257
0.00457281
0.00410687
0.00264226
0.00805071
0.0194724
0.0216157
0.0215059
0.020733
0.018481
0.0153421
0.0120176
0.00883523
0.00623653
0.00435123
0.00326383
0.00271596
0.00241192
0.00221007
0.00203197
0.00184723
0.00166432
0.00150873
0.00139851
0.00133786
0.00132597
0.00135475
0.00141857
0.00151578
0.0016478
0.00181791
0.00203043
0.00229586
0.00262428
0.00302431
0.00349676
0.00401534
0.00451211
0.00481677
0.00510141
0.00428743
0.0027114
0.00890517
0.0093506
0.00976447
0.0120865
0.0107981
0.00847937
0.0060353
0.0043707
0.00348273
0.00273212
0.00214622
0.00173668
0.00142362
0.00120705
0.00106705
0.000970227
0.000895701
0.000833969
0.000784664
0.000752242
0.00074032
0.000749256
0.000776108
0.000816439
0.000868859
0.000933085
0.00100981
0.00110069
0.00120877
0.00133949
0.00149641
0.00168139
0.00189878
0.00215354
0.0024503
0.00283118
0.00300655
0.00288467
0.00249563
0.00213476
)
;

boundaryField
{
    floor
    {
        type            kqRWallFunction;
        value           nonuniform List<scalar> 
36
(
0.00187353
0.000457649
0.000628909
0.000808386
0.000878914
0.000851636
0.000745779
0.000636846
0.000546665
0.000474115
0.00041529
0.000367106
0.000327383
0.000294061
0.000265268
0.000239329
0.000214625
0.000200579
0.000169421
0.000169421
0.000292746
0.000408843
0.000542374
0.00096941
0.00108636
0.00128347
0.00187353
0.00326449
0.00224696
0.00149575
0.000457649
0.00149575
0.000450311
0.00208669
0.00106813
0.00276955
)
;
    }
    ceiling
    {
        type            kqRWallFunction;
        value           nonuniform List<scalar> 
43
(
0.00890517
0.0093506
0.00976447
0.0120865
0.0107981
0.00847937
0.0060353
0.0043707
0.00348273
0.00273212
0.00214622
0.00173668
0.00142362
0.00120705
0.00106705
0.000970227
0.000895701
0.000833969
0.000784664
0.000752242
0.00074032
0.000749256
0.000776108
0.000816439
0.000868859
0.000933085
0.00100981
0.00110069
0.00120877
0.00133949
0.00149641
0.00168139
0.00189878
0.00215354
0.0024503
0.00283118
0.00300655
0.00288467
0.00249563
0.00213476
0.0182045
0.0264661
0.00805071
)
;
    }
    sWall
    {
        type            kqRWallFunction;
        value           uniform 0.00890517;
    }
    nWall
    {
        type            kqRWallFunction;
        value           nonuniform List<scalar> 6(0.00128347 0.00138072 0.00194893 0.00264226 0.0027114 0.00213476);
    }
    sideWalls
    {
        type            empty;
    }
    glass1
    {
        type            kqRWallFunction;
        value           nonuniform List<scalar> 9(0.00226803 0.00412341 0.00609567 0.00835953 0.0110419 0.0143264 0.0179762 0.0189411 0.0182045);
    }
    glass2
    {
        type            kqRWallFunction;
        value           nonuniform List<scalar> 2(0.00467717 0.00408136);
    }
    sun
    {
        type            kqRWallFunction;
        value           nonuniform List<scalar> 
14
(
0.00226803
0.00268635
0.00280916
0.00308438
0.00334926
0.00361012
0.00388086
0.00416575
0.00440611
0.00456051
0.00457798
0.00441309
0.00402216
0.00325454
)
;
    }
    Table_master
    {
        type            kqRWallFunction;
        value           nonuniform List<scalar> 9(0.00134736 0.0010327 0.000802744 0.00063769 0.000518325 0.000430659 0.000365378 0.000316505 0.000280917);
    }
    Table_slave
    {
        type            kqRWallFunction;
        value           nonuniform List<scalar> 9(0.00170986 0.00143673 0.0012643 0.0011441 0.00104713 0.000954973 0.000871407 0.000787262 0.000694317);
    }
    inlet
    {
        type            turbulentIntensityKineticEnergyInlet;
        intensity       0.05;
        value           uniform 0.000937501;
    }
    outlet
    {
        type            zeroGradient;
    }
}


// ************************************************************************* //
