/*--------------------------------*- C++ -*----------------------------------*\
  =========                 |
  \\      /  F ield         | OpenFOAM: The Open Source CFD Toolbox
   \\    /   O peration     | Website:  https://openfoam.org
    \\  /    A nd           | Version:  6
     \\/     M anipulation  |
\*---------------------------------------------------------------------------*/
FoamFile
{
    version     2.0;
    format      ascii;
    class       volScalarField;
    location    "710";
    object      nut;
}
// * * * * * * * * * * * * * * * * * * * * * * * * * * * * * * * * * * * * * //

dimensions      [0 2 -1 0 0 0 0];

internalField   nonuniform List<scalar> 
458
(
0.00113312
0.00123684
0.00126889
0.00133229
0.00139208
0.00145084
0.00151304
0.00156927
0.00161191
0.00163189
0.00162001
0.00156465
0.00138491
0.00117193
0.000987125
0.00052106
0.000611628
0.000691737
0.00071872
0.000706405
0.000662677
0.000614789
0.000571741
0.000534179
0.000501335
0.000472509
0.000447202
0.000424573
0.000403799
0.000383957
0.000363908
0.000351698
0.000323429
0.00151526
0.0034561
0.0032109
0.00368495
0.00416298
0.00463298
0.00499127
0.00534643
0.00570107
0.00601244
0.00623871
0.00633684
0.0061985
0.00554071
0.00358442
0.00122887
0.00106301
0.000893007
0.00051449
0.00130062
0.00191399
0.00237322
0.00247654
0.00176954
0.00148818
0.00130234
0.00116674
0.00106326
0.000980853
0.000906843
0.000836713
0.0007658
0.000702043
0.000647947
0.000789376
0.000422268
0.00182988
0.00460267
0.00381589
0.00455038
0.0048349
0.00503656
0.00520652
0.0054391
0.00574964
0.00612611
0.00654277
0.00693598
0.00715092
0.00687219
0.00596547
0.00444235
0.0032309
0.000997757
0.000749691
0.00143337
0.00215916
0.00284061
0.00295035
0.000874176
0.000764069
0.000673036
0.000599794
0.00054105
0.000493704
0.000455588
0.000425062
0.000401869
0.000449833
0.000525687
0.000928095
0.000498199
0.00212896
0.00579238
0.00368705
0.00460147
0.00466036
0.00461324
0.00465719
0.00483097
0.00512729
0.00555332
0.00609082
0.00663625
0.00699006
0.00694378
0.0065446
0.00574708
0.00453065
0.00233356
0.00110076
0.00162942
0.00238895
0.00324413
0.00389638
0.00380217
0.000973523
0.00089204
0.000837203
0.000796442
0.000761064
0.000725841
0.000691982
0.000655962
0.000613662
0.000574264
0.000574888
0.00111749
0.000568658
0.00243116
0.00738784
0.00378638
0.00435499
0.00439887
0.00421929
0.00424052
0.00443099
0.0047375
0.00519512
0.00579068
0.0063624
0.00666436
0.00666016
0.00645592
0.00607731
0.00535009
0.00412051
0.00388865
0.0042617
0.00478352
0.00523655
0.00545158
0.00531114
0.00444846
0.0040256
0.00379614
0.00362931
0.00345707
0.00322184
0.00285724
0.00240437
0.001904
0.00143274
0.00107111
0.00106416
0.000952968
0.000760372
0.000796146
0.000859817
0.00275286
0.00919232
0.00499832
0.00405533
0.00426015
0.00414409
0.00411288
0.00432447
0.00463119
0.00509689
0.00569252
0.00623716
0.00648465
0.0064184
0.00626321
0.00617274
0.0060279
0.00574614
0.00596967
0.00641902
0.00667583
0.00668244
0.0064671
0.0060859
0.00560084
0.00523047
0.00495764
0.00472389
0.00449559
0.00425168
0.00392002
0.00346993
0.002909
0.0022908
0.00173987
0.00126232
0.00109183
0.000996983
0.00126054
0.00089323
0.00307222
0.0105497
0.00734202
0.00473516
0.00420598
0.00434076
0.00433906
0.00444858
0.0047071
0.00515656
0.00575327
0.00629022
0.00648255
0.00635868
0.00631991
0.00660778
0.00690999
0.00711967
0.00746391
0.00764907
0.00752264
0.0071454
0.00661235
0.00602086
0.00547692
0.0050751
0.00478915
0.00455937
0.00435662
0.00417661
0.0040152
0.00375901
0.0033476
0.00281671
0.00229157
0.00180471
0.00152581
0.00144796
0.00140281
0.00106808
0.00315362
0.00978477
0.00815724
0.00659498
0.00559896
0.00518468
0.00479003
0.00469297
0.00489581
0.00534682
0.00595975
0.00648864
0.00661006
0.00649738
0.00683705
0.00730391
0.00757542
0.00776167
0.00786941
0.00770119
0.00723812
0.00658365
0.00586649
0.00520886
0.00470312
0.00436256
0.00412816
0.00395132
0.00381848
0.00373495
0.00370953
0.00371702
0.00355166
0.00321706
0.00291789
0.00278328
0.00292953
0.00322324
0.00399832
0.00165029
0.00309506
0.00374379
0.00419842
0.00437173
0.00433254
0.00428292
0.00437483
0.00466442
0.00508604
0.00564628
0.00630139
0.00679126
0.00679313
0.00688551
0.00716445
0.007316
0.00735652
0.00732484
0.00712416
0.00666914
0.00601911
0.00531111
0.00467701
0.00418927
0.00384565
0.00359776
0.00339768
0.00322247
0.00306719
0.00293118
0.00281074
0.00269762
0.00260438
0.00253185
0.00249802
0.00249181
0.00244961
0.00232595
0.00216373
0.00151823
0.00156747
0.00266349
0.00356404
0.00429121
0.00494786
0.00545154
0.00577737
0.00621189
0.00669761
0.00706755
0.00701619
0.00687693
0.00664561
0.00641873
0.00623131
0.00600328
0.00565463
0.00518596
0.00468216
0.00423559
0.00388513
0.00362077
0.00341027
0.00322386
0.00304589
0.00287564
0.00272235
0.0025998
0.00252206
0.00249155
0.0024865
0.00249339
0.00249582
0.00245894
0.0023347
0.0021086
0.00181859
0.00122138
0.00216735
0.0042961
0.00539516
0.00612148
0.00644785
0.00599759
0.0055677
0.0057525
0.00573127
0.00571822
0.00562838
0.00542005
0.00520608
0.00504213
0.00488816
0.00469275
0.00443288
0.00412411
0.00383528
0.00359376
0.00339748
0.00323424
0.00309251
0.00296622
0.00285517
0.00276201
0.00268811
0.00262992
0.00260264
0.00261222
0.00265109
0.00270616
0.00275702
0.00278447
0.00275208
0.00270761
0.00233446
0.00123767
0.00226353
0.00230967
0.00235526
0.00263582
0.00240171
0.00200242
0.00160688
0.00143208
0.00130196
0.00122551
0.00117647
0.00112762
0.00108383
0.00105116
0.00102812
0.00100874
0.000988256
0.000964502
0.000939234
0.000917803
0.000900014
0.000886779
0.000878144
0.000873958
0.000874283
0.000879452
0.000889986
0.000906562
0.000930138
0.000962329
0.00100229
0.00104982
0.00110484
0.00116731
0.00123676
0.00132284
0.00135962
0.00133227
0.00124055
0.00114607
)
;

boundaryField
{
    floor
    {
        type            nutkWallFunction;
        Cmu             0.09;
        kappa           0.41;
        E               9.8;
        value           nonuniform List<scalar> 
36
(
0.000119194
6.24096e-05
7.38064e-05
8.37159e-05
8.70219e-05
8.55148e-05
8.01378e-05
7.42001e-05
6.88144e-05
6.40745e-05
5.98961e-05
5.62008e-05
5.29333e-05
4.9992e-05
4.72741e-05
4.46616e-05
4.2004e-05
4.03763e-05
3.65787e-05
3.65787e-05
4.96905e-05
5.94945e-05
6.8426e-05
9.20963e-05
9.64289e-05
0.000104084
0.000119194
0.0001473
0.000128094
0.000108046
6.24096e-05
0.000108046
6.15736e-05
0.000120446
9.07983e-05
0.000132494
)
;
    }
    ceiling
    {
        type            nutkWallFunction;
        Cmu             0.09;
        kappa           0.41;
        E               9.8;
        value           nonuniform List<scalar> 
43
(
0.000261669
0.000266616
0.000271495
0.000301404
0.000276589
0.000233592
0.000190053
0.000170447
0.000155677
0.000146922
0.000141275
0.00013562
0.000130529
0.000126715
0.000124017
0.000121742
0.000119332
0.00011653
0.000113541
0.000110999
0.000108883
0.000107306
0.000106275
0.000105775
0.000105814
0.000106431
0.000107688
0.000109662
0.000112463
0.000116274
0.000120983
0.000126558
0.000132976
0.000140217
0.000148218
0.000158065
0.000162251
0.000159139
0.000148655
0.000137762
0.000349915
0.00041676
0.000251237
)
;
    }
    sWall
    {
        type            nutkWallFunction;
        Cmu             0.09;
        kappa           0.41;
        E               9.8;
        value           uniform 0.000261741;
    }
    nWall
    {
        type            nutkWallFunction;
        Cmu             0.09;
        kappa           0.41;
        E               9.8;
        value           nonuniform List<scalar> 6(0.000104086 0.000108077 0.000128697 0.000146465 0.000148336 0.000137772);
    }
    sideWalls
    {
        type            empty;
    }
    glass1
    {
        type            nutkWallFunction;
        Cmu             0.09;
        kappa           0.41;
        E               9.8;
        value           nonuniform List<scalar> 9(0.000136389 0.000180069 0.000215096 0.000247786 0.000280319 0.000314484 0.000347991 0.000356483 0.000350403);
    }
    glass2
    {
        type            nutkWallFunction;
        Cmu             0.09;
        kappa           0.41;
        E               9.8;
        value           nonuniform List<scalar> 2(0.000195019 0.000180255);
    }
    sun
    {
        type            nutkWallFunction;
        Cmu             0.09;
        kappa           0.41;
        E               9.8;
        value           nonuniform List<scalar> 
14
(
0.000136255
0.000148215
0.000151889
0.000159126
0.000165916
0.000172557
0.000179555
0.000185855
0.000190615
0.000192841
0.000191518
0.000185338
0.000165103
0.000140741
)
;
    }
    Table_master
    {
        type            nutkWallFunction;
        Cmu             0.09;
        kappa           0.41;
        E               9.8;
        value           nonuniform List<scalar> 9(0.000105798 9.25455e-05 8.14179e-05 7.23342e-05 6.49514e-05 5.89295e-05 5.40295e-05 5.00684e-05 4.70349e-05);
    }
    Table_slave
    {
        type            nutkWallFunction;
        Cmu             0.09;
        kappa           0.41;
        E               9.8;
        value           nonuniform List<scalar> 9(0.00011759 0.00010793 0.000101372 9.64641e-05 9.21807e-05 8.78925e-05 8.37471e-05 7.93104e-05 7.40626e-05);
    }
    inlet
    {
        type            calculated;
        value           uniform 0.000167705;
    }
    outlet
    {
        type            calculated;
        value           nonuniform List<scalar> 2(0.00226353 0.00230967);
    }
}


// ************************************************************************* //
