/*--------------------------------*- C++ -*----------------------------------*\
  =========                 |
  \\      /  F ield         | OpenFOAM: The Open Source CFD Toolbox
   \\    /   O peration     | Website:  https://openfoam.org
    \\  /    A nd           | Version:  6
     \\/     M anipulation  |
\*---------------------------------------------------------------------------*/
FoamFile
{
    version     2.0;
    format      ascii;
    class       volScalarField;
    location    "35299.9999982044319";
    object      k;
}
// * * * * * * * * * * * * * * * * * * * * * * * * * * * * * * * * * * * * * //

dimensions      [0 2 -2 0 0 0 0];

internalField   nonuniform List<scalar> 
778
(
0.00158589
0.00180105
0.00178792
0.00194647
0.00209772
0.00224003
0.00237674
0.00251239
0.00265278
0.00280617
0.00295648
0.00310286
0.00325047
0.00341297
0.0035867
0.000793067
0.00162506
0.00165166
0.00157284
0.00144517
0.00128295
0.00113081
0.000999088
0.000887317
0.000792759
0.000713017
0.000645005
0.000586022
0.000533519
0.000484786
0.000436322
0.000398009
0.000326118
0.00340692
0.00643321
0.00268747
0.00274607
0.00288776
0.00305435
0.00323473
0.00343053
0.00364383
0.00387426
0.00412646
0.00438034
0.00459618
0.0047014
0.00459556
0.00429921
0.00390806
0.0035806
0.00253537
0.00281159
0.00295393
0.00289654
0.00266395
0.00226516
0.00190596
0.00160971
0.00136994
0.00117606
0.00101719
0.000885358
0.000774081
0.000681259
0.000615238
0.000574716
0.000864178
0.000524022
0.00549068
0.0127805
0.00347787
0.00321214
0.00329747
0.00345532
0.00363673
0.00384095
0.00407135
0.00432811
0.00463631
0.00501177
0.00545196
0.00596136
0.00653209
0.0068604
0.00627812
0.00538618
0.004037
0.00416832
0.0041714
0.00397403
0.00357645
0.00266449
0.00201485
0.00157568
0.00126962
0.00104961
0.000887243
0.00076487
0.000672016
0.000603786
0.000551567
0.000548744
0.00116501
0.000677973
0.00797335
0.021757
0.00449092
0.00339076
0.00334155
0.00343813
0.00354954
0.00366907
0.00380938
0.00399182
0.00425979
0.00464931
0.00517218
0.00582616
0.00655544
0.00713484
0.00722824
0.00724235
0.00534348
0.00555066
0.00537581
0.00512484
0.00478624
0.00434754
0.00345523
0.00285845
0.00243548
0.00210966
0.00185041
0.00163204
0.00143866
0.00125865
0.00107774
0.000800639
0.000659756
0.00142046
0.000821582
0.010876
0.0336319
0.00621211
0.00342496
0.00315829
0.00316701
0.00318968
0.00321004
0.00325238
0.00336146
0.00359523
0.00398989
0.00455434
0.00527775
0.00608793
0.00681828
0.00728408
0.00764497
0.00751874
0.00665479
0.00607342
0.00557883
0.00509879
0.00462911
0.00412277
0.0036653
0.00327479
0.00293723
0.00263113
0.00234778
0.00207926
0.00181845
0.00155477
0.00122172
0.000930269
0.0011896
0.00121565
0.00116758
0.00203038
0.0018567
0.0141742
0.0475945
0.00928224
0.00348986
0.00290849
0.00282274
0.00276447
0.0026997
0.00266443
0.00273477
0.00298109
0.00341466
0.00402409
0.00479832
0.00565427
0.00646138
0.0070693
0.00740798
0.00732459
0.00679048
0.0062153
0.00563717
0.00507424
0.00455593
0.00409124
0.0036956
0.00336306
0.00307366
0.00280684
0.00255165
0.0022991
0.00204218
0.00177359
0.00147116
0.00117854
0.00111247
0.00111072
0.00171406
0.00510267
0.00265607
0.0179909
0.0606013
0.0143564
0.00381908
0.00271508
0.00252933
0.00241183
0.00229418
0.00222126
0.0023117
0.0026304
0.00313936
0.003802
0.00463082
0.00552812
0.00636628
0.00700064
0.00732827
0.00725496
0.00681856
0.00621564
0.00555486
0.00491187
0.00434277
0.0038725
0.00350044
0.00320675
0.00296185
0.00274158
0.00252945
0.0023138
0.00208728
0.00184503
0.00158282
0.00132801
0.00116044
0.00109184
0.00155895
0.00627515
0.00369129
0.0216395
0.0704777
0.0214308
0.00510074
0.00274243
0.00237167
0.00221013
0.00208208
0.00202658
0.00221976
0.00264998
0.00323086
0.00393665
0.00477333
0.00569729
0.00657171
0.00722234
0.00751344
0.00738443
0.00689653
0.0061983
0.00542678
0.00469126
0.00406425
0.00357427
0.00321233
0.00294755
0.00274097
0.00256446
0.00239632
0.00222262
0.00203569
0.00183213
0.00161324
0.00139873
0.00123127
0.00115342
0.00210549
0.0142644
0.0063312
0.0228324
0.069497
0.0325274
0.0110499
0.0040645
0.00258671
0.0022354
0.0021032
0.00219044
0.00251319
0.00300115
0.00360212
0.00433139
0.00520999
0.00618128
0.00708359
0.00771415
0.00792147
0.00766408
0.00702534
0.00616482
0.00524773
0.00440664
0.00372167
0.00321604
0.00286837
0.00263516
0.00246876
0.00233628
0.00221165
0.00207983
0.00193354
0.00177053
0.00159388
0.00141912
0.00128824
0.00132506
0.00391904
0.0281791
0.0080981
0.0219182
0.0516419
0.033641
0.0174268
0.00858186
0.0047563
0.00326038
0.00273037
0.00285413
0.00321238
0.0036736
0.00424629
0.00499288
0.00593312
0.0069671
0.00788062
0.00843667
0.00848118
0.00800238
0.00712284
0.00603977
0.004952
0.00400951
0.00328915
0.00279672
0.0024877
0.00230141
0.00218357
0.00209585
0.00201133
0.0019164
0.0018054
0.00167757
0.00153728
0.00139895
0.0013149
0.00165121
0.007678
0.0263408
0.00851019
0.0192343
0.0394428
0.030238
0.0195625
0.0121783
0.00793593
0.0057159
0.00466939
0.00436325
0.00440108
0.00465312
0.00514351
0.00592915
0.00697072
0.00807624
0.00895356
0.00933665
0.00909381
0.00827206
0.00705873
0.00570815
0.00445587
0.00345846
0.00276644
0.00234679
0.00211371
0.00198918
0.00192219
0.00187268
0.00181915
0.00175148
0.00166596
0.00156355
0.00145157
0.00135122
0.00137841
0.0023788
0.00892205
0.023643
0.00847384
0.0159507
0.0315895
0.0266513
0.0195375
0.0139741
0.0102824
0.00802604
0.00675042
0.0060491
0.00573132
0.00578178
0.00626892
0.00719714
0.0083993
0.00954722
0.0102689
0.010305
0.0095936
0.00828623
0.00666213
0.0050494
0.00371462
0.00278937
0.00223212
0.00195304
0.00181315
0.00174427
0.00171078
0.00168373
0.00164846
0.00159745
0.00152774
0.00144148
0.00135187
0.00130797
0.0016815
0.0038879
0.00976199
0.0198457
0.00803176
0.0132663
0.025669
0.0233487
0.0186882
0.0145822
0.0115868
0.00954232
0.00820897
0.0072999
0.00683987
0.00695459
0.00770761
0.00895524
0.0103343
0.0113782
0.0116908
0.011106
0.00970026
0.00778901
0.00575722
0.00402209
0.0028318
0.00219313
0.00186184
0.00169746
0.0016153
0.00157438
0.00155314
0.00153292
0.00150382
0.00146011
0.00139967
0.00132702
0.00126665
0.00133485
0.00213423
0.00495039
0.0101321
0.0162867
0.00745808
0.0133454
0.0224128
0.022053
0.0177573
0.0143905
0.0118925
0.0100828
0.00876853
0.00791855
0.00777324
0.00846374
0.00984348
0.0114852
0.0128271
0.0133711
0.0128361
0.01129
0.0089968
0.0065225
0.00430963
0.00296284
0.00222698
0.00185867
0.00167101
0.00156959
0.0015104
0.00147387
0.00144923
0.00142447
0.0013929
0.00135082
0.00129816
0.00124299
0.00121969
0.00136573
0.00221608
0.00486167
0.00966132
0.0167691
0.0073598
0.010873
0.0117618
0.0129228
0.0125529
0.0113755
0.0100763
0.00894884
0.00820612
0.00830551
0.0094114
0.0112687
0.0133135
0.0148906
0.0154773
0.0148161
0.0128935
0.010184
0.00703958
0.00465327
0.00314832
0.00236179
0.00197576
0.00177689
0.00165709
0.00157225
0.00150632
0.00145422
0.00141379
0.00137706
0.00134008
0.0013036
0.00127412
0.00126657
0.00131629
0.00152872
0.00224589
0.00435695
0.00916297
0.0154655
0.00849238
0.00354649
0.00482915
0.00600469
0.00661224
0.00729189
0.00880685
0.0113158
0.0141229
0.0165074
0.0179179
0.0180099
0.0167139
0.0142333
0.0106484
0.00736472
0.00486686
0.00336272
0.00259732
0.00223906
0.00205459
0.00193459
0.00183632
0.00174545
0.00165983
0.00158404
0.00152636
0.00148742
0.00147077
0.00148815
0.00155412
0.00168045
0.00188452
0.00223183
0.00293416
0.00461012
0.0100653
0.0141396
0.00879131
0.00444535
0.00630013
0.00812316
0.011043
0.0147219
0.0181697
0.0203847
0.0214174
0.0213153
0.0200826
0.0175558
0.014107
0.01048
0.00722067
0.00492217
0.00359929
0.00296301
0.00267155
0.00251887
0.00241708
0.00233465
0.00225917
0.00218543
0.00211408
0.00205271
0.00201591
0.00201634
0.00207089
0.00219966
0.00241808
0.00273403
0.00316038
0.0037515
0.00467432
0.00640573
0.0114181
0.014876
0.00909921
0.0150754
0.0244172
0.018084
0.0144073
0.0170443
0.0207518
0.0228842
0.0235746
0.0230955
0.0217175
0.0196859
0.0170414
0.0138883
0.0106098
0.00771484
0.00559222
0.00435958
0.00375924
0.00346739
0.00330181
0.00319617
0.00312951
0.0030912
0.00306965
0.00305249
0.0030323
0.00301439
0.00301793
0.00306568
0.00318291
0.00339063
0.00370689
0.00414611
0.0047267
0.00549338
0.0065633
0.00822951
0.0111791
0.014744
0.00828615
0.0138102
0.0170469
0.0178939
0.0207992
0.0217427
0.0221652
0.0211684
0.0193521
0.0172263
0.0150419
0.0129028
0.010864
0.0089894
0.00739326
0.00618623
0.00535894
0.00479365
0.00441487
0.00415697
0.00399283
0.00391574
0.0039218
0.00400099
0.00413443
0.00429552
0.00445471
0.00458708
0.00468766
0.00480005
0.00495913
0.00519131
0.00551885
0.00596581
0.00657
0.00740436
0.0085897
0.0102665
0.0130884
0.0169895
0.0079057
0.0121392
0.00890817
0.00882026
0.00933947
0.0097801
0.0092024
0.00813072
0.00696643
0.00589663
0.00497296
0.00419108
0.00354007
0.00302134
0.00264332
0.00240407
0.00228567
0.00224998
0.00225671
0.00229713
0.00236757
0.00246344
0.00257775
0.0027023
0.00282974
0.0029553
0.00307777
0.00320012
0.00332728
0.00346418
0.00362074
0.00380483
0.00402166
0.00427437
0.00456543
0.00490014
0.00530181
0.00586848
0.00671034
0.00784357
0.00731051
)
;

boundaryField
{
    floor
    {
        type            kqRWallFunction;
        value           nonuniform List<scalar> 
36
(
0.0035867
0.000793067
0.00162506
0.00165166
0.00157284
0.00144517
0.00128295
0.00113081
0.000999088
0.000887317
0.000792759
0.000713017
0.000645005
0.000586022
0.000533519
0.000484786
0.000436322
0.000398009
0.000326118
0.000326118
0.000524022
0.000677973
0.000821582
0.00116758
0.00203038
0.0018567
0.0035867
0.00429921
0.00390806
0.0035806
0.000793067
0.0035806
0.00253537
0.00538618
0.004037
0.00534348
)
;
    }
    ceiling
    {
        type            kqRWallFunction;
        value           nonuniform List<scalar> 
43
(
0.0121392
0.00890817
0.00882026
0.00933947
0.0097801
0.0092024
0.00813072
0.00696643
0.00589663
0.00497296
0.00419108
0.00354007
0.00302134
0.00264332
0.00240407
0.00228567
0.00224998
0.00225671
0.00229713
0.00236757
0.00246344
0.00257775
0.0027023
0.00282974
0.0029553
0.00307777
0.00320012
0.00332728
0.00346418
0.00362074
0.00380483
0.00402166
0.00427437
0.00456543
0.00490014
0.00530181
0.00586848
0.00671034
0.00784357
0.00731051
0.010873
0.0117618
0.00444535
)
;
    }
    sWall
    {
        type            kqRWallFunction;
        value           nonuniform List<scalar> 9(0.0219182 0.0192343 0.0159507 0.0132663 0.0133454 0.010873 0.0150754 0.0138102 0.0121392);
    }
    nWall
    {
        type            kqRWallFunction;
        value           nonuniform List<scalar> 
14
(
0.0018567
0.00265607
0.00369129
0.00851019
0.00847384
0.00803176
0.00745808
0.0073598
0.00849238
0.00879131
0.00909921
0.00828615
0.0079057
0.00731051
)
;
    }
    sideWalls
    {
        type            empty;
    }
    glass1
    {
        type            kqRWallFunction;
        value           nonuniform List<scalar> 9(0.00158589 0.00340692 0.00549068 0.00797335 0.010876 0.0141742 0.0179909 0.0216395 0.0228324);
    }
    glass2
    {
        type            kqRWallFunction;
        value           nonuniform List<scalar> 2(0.0063312 0.0080981);
    }
    sun
    {
        type            kqRWallFunction;
        value           nonuniform List<scalar> 
14
(
0.00158589
0.00180105
0.00178792
0.00194647
0.00209772
0.00224003
0.00237674
0.00251239
0.00265278
0.00280617
0.00295648
0.00310286
0.00325047
0.00341297
)
;
    }
    Table_master
    {
        type            kqRWallFunction;
        value           nonuniform List<scalar> 9(0.00266449 0.00201485 0.00157568 0.00126962 0.00104961 0.000887243 0.00076487 0.000672016 0.000603786);
    }
    Table_slave
    {
        type            kqRWallFunction;
        value           nonuniform List<scalar> 9(0.00345523 0.00285845 0.00243548 0.00210966 0.00185041 0.00163204 0.00143866 0.00125865 0.00107774);
    }
    inlet
    {
        type            turbulentIntensityKineticEnergyInlet;
        intensity       0.05;
        value           uniform 0.0009375;
    }
    outlet
    {
        type            zeroGradient;
    }
}


// ************************************************************************* //
