/*--------------------------------*- C++ -*----------------------------------*\
  =========                 |
  \\      /  F ield         | OpenFOAM: The Open Source CFD Toolbox
   \\    /   O peration     | Website:  https://openfoam.org
    \\  /    A nd           | Version:  6
     \\/     M anipulation  |
\*---------------------------------------------------------------------------*/
FoamFile
{
    version     2.0;
    format      ascii;
    class       surfaceScalarField;
    location    "35299.9999982044319";
    object      phi;
}
// * * * * * * * * * * * * * * * * * * * * * * * * * * * * * * * * * * * * * //

dimensions      [1 0 -1 0 0 0 0];

internalField   nonuniform List<scalar> 
1482
(
-0.00279983
0.00286386
-0.00348419
0.000684362
-0.00414511
0.000660915
-0.00475946
0.000614357
-0.00528113
0.000521667
-0.00569332
0.000412194
-0.00598478
0.000291455
-0.0061424
0.000157621
-0.00614883
6.42506e-06
-0.00597806
-0.000170761
-0.00560016
-0.000377902
-0.0049841
-0.000616065
-0.0040597
-0.000924401
-0.00258063
-0.00147907
-0.00257771
-6.52836e-05
7.01369e-05
0.000777538
-0.000842822
0.00142937
-0.000651835
0.00182816
-0.000398788
0.0020493
-0.000221138
0.00215354
-0.000104245
0.0022009
-4.73508e-05
0.00222367
-2.27709e-05
0.00223331
-9.64507e-06
0.00223409
-7.80256e-07
0.00222696
7.13555e-06
0.00220794
1.90146e-05
0.00216376
4.41826e-05
0.00206126
0.000102504
0.00184515
0.000216104
0.00148875
0.000356401
0.00101895
0.000469801
0.00102539
-0.00204044
0.00507463
-0.00290869
0.00155261
-0.00369473
0.00144696
-0.00434603
0.00126565
-0.00488359
0.00105922
-0.00531266
0.000841268
-0.00563143
0.000610225
-0.00583306
0.000359249
-0.00590684
8.0204e-05
-0.00584492
-0.000232682
-0.0056415
-0.00058132
-0.00528529
-0.000972273
-0.00477514
-0.00143456
-0.00428909
-0.00196511
-0.00470505
-0.00216175
-0.00311809
-0.00158151
-0.00163404
-0.00147837
-0.00161919
0.00131716
-0.00123681
0.00166025
-0.00118592
0.00191064
-0.000902218
0.00210058
-0.000588726
0.00220682
-0.000327386
0.00221551
-0.000112934
0.0022176
-4.94357e-05
0.00221931
-2.4479e-05
0.00222031
-1.06466e-05
0.0022203
-7.72997e-07
0.0022189
8.54117e-06
0.00221466
2.32508e-05
0.00220201
5.68278e-05
0.00214014
0.000164381
0.00189079
0.000465454
0.00146223
0.000784959
0.000900462
0.00103157
0.00194274
-0.00148833
0.00682088
-0.00235934
0.00242363
-0.0031295
0.00221712
-0.00371396
0.00185011
-0.00418488
0.00153015
-0.00455659
0.00121298
-0.00483087
0.000884503
-0.00500445
0.000532826
-0.0050709
0.000146651
-0.00502113
-0.000282446
-0.00484443
-0.000758025
-0.0045334
-0.00128331
-0.00411891
-0.00184904
-0.00372171
-0.00236231
-0.00330164
-0.00258183
-0.00237038
-0.00251277
-0.00127616
-0.00257259
-0.00288252
0.00114871
-0.00237106
0.00165142
-0.00168864
0.00194893
-0.00119972
0.00214048
-0.000780286
0.00216819
-0.000355089
0.00205541
0.00200613
0.0019818
0.00197131
0.00197069
0.00197938
0.00200279
0.00205977
0.00222431
0.00186571
0.000824056
0.00141838
0.00123228
0.000800699
0.00164925
0.00276947
-0.00110613
0.00825822
-0.00192816
0.00324566
-0.00257038
0.00285933
-0.00303091
0.00231064
-0.00339866
0.00189789
-0.00368766
0.00150198
-0.0039009
0.00109774
-0.00403651
0.000668441
-0.00408697
0.000197103
-0.00403905
-0.00033036
-0.00388051
-0.000916565
-0.00360731
-0.00155651
-0.00324214
-0.00221421
-0.00282088
-0.00278357
-0.0022822
-0.0031205
-0.00156324
-0.00323173
-0.000875687
-0.00326014
-0.000697483
-0.00306072
0.00143872
-0.00212075
0.00137254
-0.00230488
0.00168867
-0.00200477
0.00200136
-0.00151241
0.00226773
-0.00104665
0.0025448
-0.000632155
0.00285711
-0.000312466
0.00302337
-0.000166411
0.00308754
-6.43301e-05
0.0030701
1.72865e-05
0.0029798
9.01497e-05
0.00281762
0.000162031
0.00257573
0.000241736
0.00223121
0.000344359
0.00172691
0.000504151
0.00159074
0.000960225
0.00126354
0.00155948
0.000738284
0.0021745
0.00354207
-0.000803833
0.00945525
-0.00158009
0.00402192
-0.00204893
0.00332816
-0.00236481
0.00262653
-0.00260936
0.00214244
-0.00279508
0.00168769
-0.00292695
0.00122962
-0.00300571
0.000747195
-0.00302477
0.000216166
-0.00296751
-0.000387621
-0.00282071
-0.00106337
-0.00257753
-0.00179969
-0.00224464
-0.0025471
-0.00182922
-0.00319899
-0.00132487
-0.00362485
-0.000749193
-0.0038074
-0.000218661
-0.00379067
0.000258461
-0.00353784
0.00111977
-0.00298206
0.00148615
-0.00267126
0.00174557
-0.00226418
0.00199828
-0.00176513
0.0022283
-0.00127667
0.00244258
-0.00084644
0.00264307
-0.000512954
0.00275252
-0.000275862
0.00278831
-0.000100116
0.00276216
4.34368e-05
0.00268051
0.000171796
0.00254588
0.000296658
0.00235709
0.000430532
0.00211171
0.000589734
0.00181772
0.000798144
0.00161198
0.00116597
0.00147002
0.00170144
0.00128947
0.00235506
0.00227134
0.0025602
0.0013155
0.000990775
0.00189087
-0.000546649
0.00200991
-0.000575885
0.0104775
-0.00132489
0.00477092
-0.00158471
0.00358798
-0.00175082
0.00279264
-0.00186501
0.00225663
-0.0019367
0.00175939
-0.00197236
0.00126528
-0.00197626
0.000751095
-0.00194522
0.000185128
-0.00185749
-0.000475355
-0.00170332
-0.00121753
-0.00147291
-0.0020301
-0.00116922
-0.00285079
-0.000798109
-0.0035701
-0.000379346
-0.00404361
6.02574e-05
-0.004247
0.000465126
-0.00419554
0.000839426
-0.00391213
0.00129068
-0.00343331
0.00158988
-0.00297046
0.00179361
-0.00246791
0.00196534
-0.00193686
0.00211712
-0.00142845
0.00225155
-0.00098087
0.00235604
-0.000617446
0.00241375
-0.000333568
0.00242447
-0.000110839
0.00239348
7.44313e-05
0.00232561
0.000239666
0.0022247
0.000397562
0.00209482
0.000560415
0.00194294
0.000741614
0.00178333
0.000957753
0.00169178
0.00125752
0.00174664
0.00164658
0.00195325
0.00214846
0.00218918
0.00232426
0.00170035
0.00147961
0.00078588
0.000367828
0.00289347
-0.000543376
0.0115131
-0.00124366
0.00547121
-0.00119222
0.00353653
-0.00120084
0.00280126
-0.00119345
0.00224925
-0.00116026
0.00172619
-0.00110341
0.00120842
-0.00102859
0.000676276
-0.000930426
8.69678e-05
-0.000781703
-0.000624077
-0.000592819
-0.00140641
-0.00035337
-0.00226955
-7.04844e-05
-0.00313368
0.000233452
-0.00387404
0.000542705
-0.00435286
0.000837354
-0.00454165
0.00110003
-0.00445821
0.0013334
-0.0041455
0.00156547
-0.00366538
0.00172553
-0.00313052
0.00182582
-0.00256819
0.00189612
-0.00200716
0.00195204
-0.00148437
0.00199867
-0.0010275
0.00203068
-0.000649463
0.00204242
-0.000345303
0.00203054
-9.896e-05
0.00199585
0.000109114
0.00194151
0.000294015
0.00187132
0.000467752
0.0017905
0.000641234
0.00170752
0.000824588
0.00163721
0.00102807
0.00162219
0.00127254
0.00170596
0.0015628
0.00190841
0.001946
0.00214874
0.00208394
0.00215585
0.0014725
0.00162986
0.00089382
0.00462639
-0.000483519
0.0125322
-0.00105159
0.00603928
-0.000697706
0.00318265
-0.000637184
0.00274074
-0.000569117
0.00218118
-0.000464774
0.00162185
-0.000336115
0.00107977
-0.000185314
0.000525474
3.65539e-06
-0.000102001
0.000221568
-0.000841989
0.000460883
-0.00164573
0.000717998
-0.00252667
0.000974249
-0.00338993
0.00120234
-0.00410213
0.00140121
-0.00455174
0.00156218
-0.00470262
0.00167999
-0.00457602
0.00175944
-0.00422495
0.00181295
-0.00371888
0.00182356
-0.00314113
0.00179938
-0.00254401
0.00175924
-0.00196702
0.00171791
-0.00144304
0.00168275
-0.000992349
0.00165372
-0.000620427
0.00162691
-0.000318493
0.00159759
-6.96383e-05
0.00156364
0.000143064
0.00152541
0.000332236
0.00148438
0.000508788
0.0014438
0.000681809
0.00141001
0.000858384
0.00139389
0.00104419
0.00141835
0.00124808
0.00150941
0.00147174
0.00171114
0.00174428
0.00197181
0.00182326
0.00206886
0.00137545
0.00164386
0.00131884
0.00663702
0.00297609
0.0101432
0.00202061
0.00699477
0.000867863
0.00433539
0.000369571
0.00323903
0.000212594
0.00233816
0.000268754
0.00156569
0.000422327
0.000926194
0.000635853
0.000311948
0.00089479
-0.000360938
0.00115914
-0.00110634
0.00143715
-0.00192373
0.00170365
-0.00279317
0.00192927
-0.00361556
0.00208984
-0.00426271
0.00217948
-0.00464139
0.00220092
-0.00472406
0.00216304
-0.00453815
0.00207955
-0.00414146
0.00196568
-0.003605
0.00182697
-0.00300242
0.00167547
-0.00239251
0.0015279
-0.00181945
0.00139874
-0.00131388
0.00129604
-0.00088964
0.00122092
-0.000545316
0.00116865
-0.000266218
0.00113208
-3.30696e-05
0.00110612
0.00016902
0.00108751
0.000350853
0.00107421
0.000522084
0.0010665
0.000689518
0.00106747
0.000857416
0.00108352
0.00102814
0.00112728
0.00120432
0.00121415
0.00138488
0.00137546
0.00158296
0.00157121
0.00162751
0.0016323
0.00131435
0.000281415
0.00266977
0.00730406
0.00403047
0.00625301
0.00366624
0.00735899
0.00254083
0.0054608
0.00188769
0.00389216
0.0015311
0.00269474
0.00138615
0.00171064
0.00141973
0.000892618
0.00159375
0.000137925
0.00184529
-0.00061248
0.00212183
-0.00138288
0.00240093
-0.00220284
0.00264531
-0.00303755
0.00281337
-0.00378363
0.00287819
-0.00432754
0.00283655
-0.00459975
0.0027023
-0.00458983
0.00249783
-0.00433368
0.00224749
-0.00389112
0.00197407
-0.00333158
0.00169468
-0.00272304
0.00142643
-0.00212426
0.00118702
-0.00158003
0.000990959
-0.00111782
0.000844175
-0.000742856
0.000745431
-0.000446573
0.000685991
-0.000206779
0.000655121
-2.19888e-06
0.000644294
0.000179846
0.000646861
0.000348285
0.000658166
0.000510779
0.000676006
0.000671677
0.000700156
0.000833266
0.00073194
0.000996354
0.000774503
0.00116175
0.000826645
0.00133274
0.000858151
0.00155145
0.000578841
0.00190679
-0.000667703
0.00256076
-0.00194459
0.00394669
0.00546368
0.00240924
0.00400829
0.00330395
0.00646428
0.00324787
0.00551689
0.00303704
0.00410299
0.00284588
0.0028859
0.00272241
0.00183411
0.00270826
0.000906763
0.00279683
4.93593e-05
0.00295821
-0.000773869
0.00316822
-0.00159289
0.003385
-0.00241962
0.00354855
-0.00320111
0.00360424
-0.00383933
0.00352551
-0.00424881
0.00331782
-0.00439208
0.00300738
-0.00427941
0.00262872
-0.00395502
0.00221534
-0.00347775
0.00179692
-0.00291316
0.0013972
-0.00232332
0.00103767
-0.00176472
0.000737584
-0.00127995
0.000510462
-0.000890697
0.000354084
-0.000586478
0.000259641
-0.00035213
0.000210916
-0.000158054
0.000194719
1.39986e-05
0.000200943
0.000173622
0.000221715
0.000327512
0.00025215
0.000480344
0.000288716
0.000635111
0.000328198
0.000793783
0.000367125
0.000957427
0.000402133
0.00112675
0.000426415
0.00130845
0.000373897
0.00160396
5.42539e-05
0.00222622
-0.000358174
0.00297279
-0.000542742
0.00413103
0.00503656
0.00145687
0.00274567
0.00274831
0.00517283
0.00343253
0.00483267
0.00371853
0.00381698
0.00381682
0.00278761
0.00384463
0.00180629
0.00388035
0.000871033
0.00394912
-1.94068e-05
0.00405874
-0.000883498
0.00419826
-0.00173241
0.0043162
-0.00253756
0.00434198
-0.00322689
0.00422419
-0.00372155
0.00395072
-0.00397535
0.00354412
-0.00398549
0.00304433
-0.00377963
0.00249552
-0.00340621
0.00193665
-0.00291888
0.00140206
-0.00237857
0.000918964
-0.00184023
0.000514068
-0.00135982
0.000205088
-0.00097097
-3.72808e-06
-0.00068188
-0.000129549
-0.000460656
-0.000197031
-0.000284649
-0.000226627
-0.000128457
-0.000229548
1.6919e-05
-0.000212636
0.00015671
-0.000180655
0.000295531
-0.000137442
0.00043713
-8.73889e-05
0.000585057
-3.66232e-05
0.000743017
5.63853e-06
0.000915165
2.55307e-05
0.00110686
-5.11642e-06
0.00133911
-0.000175392
0.00177422
-0.000559957
0.00261056
-0.000884863
0.00329729
-0.000841523
0.00408732
0.0043239
0.00217175
0.000799878
0.0029441
0.00440048
0.00359484
0.00418193
0.00416503
0.00324678
0.0044926
0.00246004
0.00466663
0.00163227
0.00478313
0.000754526
0.00488754
-0.000123811
0.0049935
-0.000989459
0.00507091
-0.0018098
0.00505408
-0.00252072
0.00488297
-0.00305578
0.00453518
-0.00337377
0.00402969
-0.00346987
0.00341162
-0.00336743
0.00273212
-0.00310014
0.00204038
-0.00271448
0.00137499
-0.00225349
0.000775478
-0.00177906
0.000269256
-0.00133401
-0.000107659
-0.000982906
-0.000352977
-0.00072565
-0.00049635
-0.000538505
-0.000574905
-0.000382099
-0.000616844
-0.000242711
-0.000633496
-0.000111806
-0.000629733
1.3156e-05
-0.000607853
0.000134828
-0.000569488
0.000257166
-0.00051726
0.000384901
-0.000456083
0.00052388
-0.000394611
0.000681545
-0.000347927
0.00086848
-0.000344407
0.00110334
-0.000439247
0.00143399
-0.000702839
0.00203798
-0.00123514
0.00314303
-0.0021752
0.00423733
-0.00234516
0.00425715
0.00212221
-0.00157534
0.00262039
0.00112048
0.00170466
0.00335226
0.00195014
0.00435498
0.00224406
0.00485893
0.00195609
0.00517338
0.00131781
0.00540124
0.000526673
0.00557893
-0.000301498
0.00567788
-0.00108838
0.00563572
-0.00176762
0.00540145
-0.00228643
0.00496331
-0.00261762
0.00434909
-0.00275955
0.00361181
-0.0027326
0.00281207
-0.0025677
0.00200061
-0.00228869
0.00122714
-0.00194101
0.000523777
-0.00155013
-5.89394e-05
-0.00119635
-0.000479682
-0.000913261
-0.000739107
-0.000723476
-0.000886665
-0.000578086
-0.000971144
-0.000454019
-0.00101834
-0.000334902
-0.00104338
-0.000217669
-0.00105161
-0.000103583
-0.00104382
5.36078e-06
-0.00101885
0.000109857
-0.000975589
0.000213906
-0.000914913
0.000324225
-0.000840783
0.000449749
-0.000761545
0.000602304
-0.000691785
0.000798717
-0.000655496
0.00106705
-0.000687559
0.00146611
-0.000781032
0.00213173
-0.0008749
0.00323738
-0.00129349
0.00465633
-0.00150479
0.00446889
0.000774371
0.00288215
0.00457162
0.00487243
0.00164934
0.00535932
0.00175717
0.00559588
0.00171953
0.00582703
0.00108667
0.0060141
0.000339616
0.00608038
-0.000367744
0.00595421
-0.000962155
0.00560182
-0.00141518
0.00503547
-0.00172005
0.00430184
-0.00188399
0.00345899
-0.0019167
0.00256595
-0.00183956
0.00167888
-0.00168063
0.000832227
-0.00144204
7.13757e-05
-0.00118016
-0.000541007
-0.000937746
-0.000963774
-0.000773574
-0.00121909
-0.000657935
-0.00136836
-0.000574184
-0.00145261
-0.000493825
-0.00150127
-0.000405348
-0.00152893
-0.000307238
-0.00154255
-0.000204053
-0.00154425
-0.000101902
-0.00153316
-5.73732e-06
-0.00150652
8.32081e-05
-0.00146113
0.000168509
-0.00139539
0.000258487
-0.00131037
0.000364733
-0.00121
0.000501921
-0.00110026
0.000688958
-0.000985634
0.000952377
-0.000855968
0.00133642
-0.000646367
0.00192226
-0.000212975
0.0028044
0.000404517
0.00403924
0.000911008
0.00396287
0.00184733
0.00793088
0.00536672
0.00581095
0.00387708
0.00556335
0.00196713
0.00563558
0.00101446
0.00560127
0.000373983
0.00535925
-0.000125675
0.00489712
-0.000499973
0.00425447
-0.000772508
0.00348445
-0.000950021
0.00263996
-0.00103949
0.00176208
-0.00103882
0.000888848
-0.000966339
5.77868e-05
-0.000849578
-0.000666837
-0.00071742
-0.00122359
-0.000623418
-0.00160169
-0.000559632
-0.00184289
-0.000532355
-0.00198593
-0.000514863
-0.00207252
-0.000487549
-0.00212677
-0.000439541
-0.0021614
-0.000370701
-0.00218245
-0.000286187
-0.00219297
-0.000193566
-0.00219416
-0.000100757
-0.00218564
-1.43005e-05
-0.00216503
6.25708e-05
-0.00212858
0.000132058
-0.00207225
0.000202169
-0.0019916
0.000284095
-0.00188049
0.000390811
-0.00172971
0.000538127
-0.00152413
0.000746668
-0.00123075
0.00104285
-0.000767845
0.00145919
-1.05329e-05
0.00204711
0.00103412
0.00299481
0.00154448
0.00345281
0.00356283
0.00408924
0.00152403
0.00449117
0.00347516
0.00372463
0.00273368
0.00322811
0.00151103
0.00288892
0.00071323
0.00252646
0.000236836
0.00208062
-5.41186e-05
0.00153899
-0.000230872
0.000920026
-0.000331073
0.00024102
-0.000360502
-0.000458895
-0.000338918
-0.00111815
-0.000307105
-0.00168117
-0.00028657
-0.00211201
-0.000286592
-0.00241578
-0.000319643
-0.00260924
-0.000366132
-0.00273258
-0.000408964
-0.00281646
-0.000430903
-0.00287946
-0.000424478
-0.00292942
-0.000389535
-0.00296914
-0.000330971
-0.00299919
-0.000256174
-0.00301942
-0.000173423
-0.00302973
-9.05578e-05
-0.00303083
-1.32865e-05
-0.0030233
5.49867e-05
-0.00300377
0.000112524
-0.00296663
0.00016508
-0.00290273
0.000220279
-0.00279783
0.000285977
-0.00263181
0.000372105
-0.0023778
0.000492523
-0.00199695
0.000661737
-0.00142358
0.000885447
-0.00053158
0.00115473
0.000873884
0.0015892
0.00158852
0.00273811
0.00533003
-0.00263545
-0.00680996
-0.00743017
-0.00747882
-0.00375622
-0.00214988
-0.00168298
0.00140195
-0.000768673
0.00181941
-0.000565887
0.00130829
-0.000640879
0.000788248
-0.000822485
0.000418453
-0.00106095
0.000184345
-0.00135088
5.90554e-05
-0.00169622
1.42384e-05
-0.00207398
1.72366e-05
-0.00244949
3.65558e-05
-0.0027965
3.98728e-05
-0.00308958
6.48822e-06
-0.00330224
-7.3924e-05
-0.00343577
-0.00018606
-0.00351944
-0.000282378
-0.00358304
-0.000345251
-0.00364217
-0.000371667
-0.00370188
-0.000364676
-0.00376192
-0.00032946
-0.0038204
-0.000272524
-0.0038752
-0.000201487
-0.00392381
-0.000124977
-0.00396249
-5.20609e-05
-0.003984
8.06539e-06
-0.00398354
5.44229e-05
-0.0039643
9.32661e-05
-0.00392759
0.000128455
-0.00387047
0.000163317
-0.0037849
0.000200593
-0.00365706
0.000244437
-0.0034657
0.000301238
-0.00317239
0.000368369
-0.002704
0.000416809
-0.00203322
0.000483546
-0.00144512
0.00100061
-0.000901234
0.00219376
0.00462344
-0.00738165
0.00102537
-0.00814712
-0.00671329
-0.00719272
-0.00310421
-0.00566832
-0.000122403
-0.00457545
0.000726589
-0.00398419
0.000717049
-0.00372511
0.00052917
-0.00365796
0.000351275
-0.00369897
0.000225316
-0.00379225
0.000152277
-0.00389664
0.000118557
-0.00398491
0.000105443
-0.00404335
9.49332e-05
-0.00407569
7.21855e-05
-0.00409812
2.89229e-05
-0.00412702
-4.49768e-05
-0.0041737
-0.000139275
-0.00424066
-0.000215284
-0.00432684
-0.000258923
-0.00442666
-0.000271728
-0.00453148
-0.000259786
-0.00463161
-0.000229347
-0.00471838
-0.000185859
-0.00478579
-0.000134266
-0.004831
-7.99998e-05
-0.0048537
-2.96095e-05
-0.00485503
9.17254e-06
-0.0048294
2.86425e-05
-0.00477898
4.27946e-05
-0.00470651
5.6031e-05
-0.0046114
6.83407e-05
-0.00448811
7.75125e-05
-0.00432429
8.08625e-05
-0.00409992
7.71084e-05
-0.00378921
5.78721e-05
-0.00334314
-2.91147e-05
-0.00255863
-0.000300843
-0.00101359
-0.000544414
-7.0939e-05
0.00125089
0.00475981
0.0015672
-0.0050814
-0.00812256
-0.00818575
-0.0074051
-0.0066418
-0.00607307
-0.00568697
-0.00542981
-0.00524729
-0.00509905
-0.00496371
-0.00483815
-0.00473445
-0.00467327
-0.00468567
-0.00479246
-0.00497566
-0.00520313
-0.00544414
-0.00567394
-0.0058739
-0.0060308
-0.00613636
-0.00618775
-0.00618877
-0.00615102
-0.00609389
-0.00602284
-0.00593896
-0.00584341
-0.00573952
-0.00563329
-0.00553198
-0.00545121
-0.00545886
-0.00573985
-0.00626609
-0.00499859
)
;

boundaryField
{
    floor
    {
        type            calculated;
        value           nonuniform List<scalar> 
36
(
0
0
0
0
0
0
0
0
0
0
0
0
0
0
0
0
0
0
0
-6.4389e-06
-1.6885e-05
-2.6035e-05
-3.43136e-05
-3.49356e-05
-2.8714e-05
-2.86807e-05
-2.91995e-06
-5.44144e-06
-5.68768e-06
-5.90795e-06
-4.85362e-06
-8.9387e-06
-1.02126e-05
-1.28338e-05
-1.44574e-05
-1.5445e-05
)
;
    }
    ceiling
    {
        type            calculated;
        value           nonuniform List<scalar> 
43
(
-5.78925e-05
-6.46237e-05
-6.29775e-05
-5.91535e-05
-5.40272e-05
-4.62314e-05
-3.95806e-05
-3.48763e-05
-3.19225e-05
-3.03391e-05
-2.97807e-05
-2.99796e-05
-3.06716e-05
-3.15329e-05
-3.22233e-05
-3.25083e-05
-3.23728e-05
-3.19491e-05
-3.13321e-05
-3.06377e-05
-2.99843e-05
-2.94606e-05
-2.9106e-05
-2.89103e-05
-2.88291e-05
-2.87991e-05
-2.87483e-05
-2.86035e-05
-2.83023e-05
-2.78051e-05
-2.71002e-05
-2.61964e-05
-2.51166e-05
-2.38893e-05
-2.25414e-05
-2.10933e-05
-1.9548e-05
-1.79856e-05
-1.65974e-05
-1.61489e-05
1.93402e-05
1.51874e-05
-0.000246555
)
;
    }
    sWall
    {
        type            calculated;
        value           nonuniform List<scalar> 9(-0.000140236 -0.000164519 -0.000194245 -0.00022596 -0.000245165 -0.000281098 -0.000423734 -0.000453628 -0.000483921);
    }
    nWall
    {
        type            calculated;
        value           nonuniform List<scalar> 
14
(
-9.0364e-05
-9.76811e-05
-0.000103047
-0.000104129
-0.000115595
-0.000128887
-0.000143513
-0.000156548
-0.000161575
-0.000170866
-0.000178761
-0.00019484
-0.00020767
-0.000222917
)
;
    }
    sideWalls
    {
        type            empty;
        value           nonuniform 0();
    }
    glass1
    {
        type            calculated;
        value           nonuniform List<scalar> 9(-6.40348e-05 -0.000170322 -0.000257925 -0.000331211 -0.000393196 -0.000446403 -0.000492218 -0.0005355 -0.000587178);
    }
    glass2
    {
        type            calculated;
        value           nonuniform List<scalar> 2(-0.000366765 -0.00038554);
    }
    sun
    {
        type            calculated;
        value           uniform 0;
    }
    Table_master
    {
        type            calculated;
        value           nonuniform List<scalar> 9(-1.53995e-07 -1.54112e-07 -1.54144e-07 -1.54164e-07 -1.54177e-07 -1.54182e-07 -1.5418e-07 -1.54166e-07 -1.54113e-07);
    }
    Table_slave
    {
        type            calculated;
        value           nonuniform List<scalar> 9(1.53663e-07 1.5372e-07 1.53719e-07 1.53736e-07 1.53757e-07 1.53801e-07 1.53868e-07 1.53962e-07 1.54089e-07);
    }
    inlet
    {
        type            calculated;
        value           uniform -0.0116483;
    }
    outlet
    {
        type            calculated;
        value           nonuniform List<scalar> 2(0.00986919 0.0122736);
    }
}


// ************************************************************************* //
