/*--------------------------------*- C++ -*----------------------------------*\
  =========                 |
  \\      /  F ield         | OpenFOAM: The Open Source CFD Toolbox
   \\    /   O peration     | Website:  https://openfoam.org
    \\  /    A nd           | Version:  6
     \\/     M anipulation  |
\*---------------------------------------------------------------------------*/
FoamFile
{
    version     2.0;
    format      ascii;
    class       volScalarField;
    location    "26999.9999986118892";
    object      alphat;
}
// * * * * * * * * * * * * * * * * * * * * * * * * * * * * * * * * * * * * * //

dimensions      [1 -1 -1 0 0 0 0];

internalField   nonuniform List<scalar> 
778
(
0.00104096
0.00111051
0.00110653
0.00115459
0.00119864
0.00123865
0.00127591
0.00131184
0.00134801
0.00138644
0.0014231
0.00145792
0.00149221
0.00152908
0.00156754
0.00073697
0.00105525
0.00106384
0.00103811
0.000995056
0.000937551
0.000880228
0.00082739
0.000779737
0.000737009
0.000698945
0.000664761
0.000633625
0.000604566
0.000576285
0.000546715
0.000522161
0.000472619
0.00152462
0.0030071
0.00263917
0.00304614
0.00334143
0.00365455
0.00396696
0.00425495
0.00448685
0.00462194
0.0047014
0.00466883
0.00443601
0.00385919
0.00281863
0.00171629
0.00163644
0.00156641
0.0013183
0.00224585
0.00311276
0.00362472
0.0036486
0.00287991
0.00246289
0.00217401
0.00195486
0.00178052
0.00163171
0.00150014
0.00137773
0.00125798
0.0011505
0.00105781
0.00119151
0.000599126
0.00193407
0.0041984
0.00311344
0.00445307
0.00497555
0.00541777
0.00581949
0.00617317
0.00647293
0.00670805
0.00693586
0.00717553
0.00739565
0.00752645
0.00743909
0.00681065
0.00498088
0.00192129
0.00166367
0.00355975
0.00496689
0.00563182
0.00512068
0.0013513
0.00117501
0.00103906
0.000932713
0.000848075
0.000779748
0.000724
0.000678644
0.000643275
0.000707326
0.000832037
0.00131759
0.000681488
0.00232899
0.00565769
0.00297913
0.00500699
0.00578032
0.00619406
0.0064983
0.00672348
0.0068917
0.00702826
0.00722238
0.00755019
0.00802829
0.00862925
0.00923315
0.0095302
0.00894773
0.00667251
0.00191389
0.00443646
0.00659788
0.00769403
0.00796313
0.00679655
0.00153903
0.00139975
0.00129198
0.00120242
0.00112609
0.00105755
0.000992918
0.000928717
0.000859362
0.000803028
0.000832531
0.00142682
0.00075014
0.00271822
0.00748936
0.00300531
0.00475991
0.00594883
0.00630136
0.00642918
0.00643397
0.00637012
0.00631386
0.00639539
0.00671392
0.00729802
0.00812494
0.00908422
0.00996823
0.0105299
0.0105248
0.0094473
0.00961465
0.00983524
0.00986528
0.00966356
0.00904385
0.00719609
0.00621559
0.00554421
0.00499809
0.00446322
0.00394538
0.00343879
0.00293277
0.00241279
0.00185328
0.00141413
0.00141308
0.0011175
0.00089458
0.00118558
0.00113025
0.00310112
0.00953924
0.00353752
0.00401403
0.00569973
0.00609068
0.00605891
0.00584052
0.00552867
0.00527167
0.00526624
0.00559966
0.00626473
0.00722299
0.0083454
0.00946717
0.0104235
0.0110352
0.0111477
0.0110366
0.0108408
0.0105623
0.0102045
0.00974949
0.00908605
0.00844734
0.0078677
0.00730677
0.00670183
0.00605623
0.00536678
0.00462745
0.00383357
0.00299127
0.00222857
0.00167327
0.00129844
0.00146478
0.00255233
0.0013501
0.00349183
0.0114344
0.00471339
0.0032883
0.00512156
0.00576108
0.00568934
0.00533599
0.00482387
0.00437352
0.00436059
0.00478101
0.00554155
0.00661172
0.00783123
0.00903935
0.0100803
0.0108268
0.0111709
0.0111452
0.0109003
0.010529
0.0101038
0.00967968
0.00926964
0.00889359
0.00854049
0.0081631
0.00770782
0.00716009
0.00651165
0.00575935
0.00490629
0.00397449
0.00306365
0.00221341
0.00162904
0.00146284
0.00259233
0.00159445
0.00382756
0.0128675
0.00642549
0.00313026
0.00405771
0.00510785
0.00525323
0.00496241
0.0043582
0.00374458
0.00388346
0.0044391
0.00528898
0.00639153
0.00765727
0.00892176
0.0100017
0.010753
0.011095
0.0110514
0.0107353
0.0102686
0.00976669
0.00932165
0.00897862
0.00873362
0.00854265
0.00833473
0.00804568
0.00764117
0.00710512
0.00643438
0.00563585
0.00473391
0.00379654
0.00284509
0.00198884
0.00132348
0.00381835
0.00209909
0.00392888
0.0121742
0.00794888
0.00404514
0.00275018
0.00337217
0.00394506
0.00399209
0.00352461
0.00342533
0.00378104
0.00443398
0.00535236
0.00652116
0.00784754
0.00915094
0.010227
0.0109202
0.0111642
0.0109977
0.0105391
0.00993757
0.00934115
0.00886549
0.00856359
0.0084154
0.00834839
0.00826867
0.00810279
0.00781088
0.00737707
0.00679981
0.00608727
0.00525963
0.00435175
0.00333086
0.00195445
0.00162629
0.00597896
0.00235718
0.00384953
0.00981257
0.00820726
0.00555136
0.00366639
0.00283968
0.00269085
0.0028179
0.003054
0.00343059
0.00396489
0.00469953
0.00569827
0.00695872
0.00835778
0.0096799
0.0106996
0.0112613
0.0113198
0.0109424
0.010279
0.00951632
0.00883644
0.00837092
0.00815753
0.00813263
0.00817919
0.00817862
0.00807169
0.00783562
0.00746281
0.00695319
0.00631205
0.00554489
0.00462076
0.0033161
0.00157486
0.00265611
0.00603086
0.00242304
0.00360605
0.00838565
0.007934
0.00635183
0.00488865
0.00393588
0.00346501
0.00335899
0.00355465
0.00391459
0.00443718
0.00521288
0.00631654
0.00769972
0.00917124
0.0104659
0.0113442
0.0116695
0.0114374
0.010764
0.00985194
0.00894064
0.0082494
0.00790232
0.00786189
0.00797609
0.008092
0.00809417
0.00798169
0.007753
0.00740344
0.00692906
0.00632483
0.0055566
0.00444839
0.00274685
0.00164856
0.00322112
0.00637852
0.00243766
0.00328349
0.00755976
0.00765222
0.00672258
0.0057193
0.00496385
0.00451907
0.00435969
0.00440071
0.00461885
0.00509939
0.00596697
0.00724481
0.00877916
0.0102838
0.011449
0.012047
0.0119924
0.0113509
0.010312
0.00915792
0.00819594
0.007651
0.00754003
0.00763503
0.00778855
0.00788949
0.00786242
0.00773163
0.00749897
0.00715711
0.00669496
0.00608352
0.00519233
0.00363404
0.00192263
0.00203718
0.00375387
0.00623245
0.00239435
0.00299383
0.00676039
0.00730488
0.00686637
0.00622301
0.00568225
0.00532259
0.00514735
0.00509647
0.00528372
0.0058947
0.00703031
0.00857955
0.0102435
0.0116522
0.0124953
0.0126102
0.0120061
0.010856
0.00945112
0.00818587
0.00737167
0.00700781
0.00695865
0.00706478
0.0072125
0.00730837
0.0072838
0.00715261
0.00691509
0.00656307
0.00607604
0.00537268
0.00415576
0.00239393
0.00176766
0.00256877
0.00402188
0.00538381
0.00230897
0.00300332
0.00670976
0.00746226
0.00694805
0.00642765
0.0060014
0.00569427
0.00549652
0.00549109
0.00594445
0.00702311
0.0086348
0.0104549
0.0120643
0.0130909
0.0133134
0.012707
0.011414
0.00976799
0.00817848
0.007023
0.0063313
0.00599766
0.00591747
0.00599388
0.00613023
0.00623103
0.00621048
0.0060662
0.00579827
0.00540684
0.00488408
0.00416759
0.00310018
0.00200723
0.00192121
0.00286779
0.00414521
0.00505853
0.00224213
0.00270953
0.00282013
0.00416522
0.00489726
0.005125
0.00513049
0.00508323
0.00518124
0.00581327
0.00715685
0.00904627
0.0110862
0.0128331
0.0139162
0.014115
0.0133838
0.0119016
0.00995505
0.00809961
0.00664087
0.00564817
0.00506702
0.00479351
0.00471061
0.00473339
0.00479411
0.00481923
0.00473293
0.00451576
0.00418436
0.00377412
0.00333277
0.00289027
0.00243502
0.00204546
0.00212717
0.00300722
0.00435213
0.00567535
0.00234179
0.000964819
0.00174028
0.00267151
0.00341941
0.00428818
0.00575776
0.00791719
0.0103103
0.0124868
0.0141144
0.0149668
0.0148948
0.0138971
0.0120745
0.00990269
0.00783823
0.00618809
0.00506809
0.00443951
0.00412225
0.00396122
0.00387432
0.00381903
0.00376033
0.00365817
0.00348089
0.00323044
0.00295177
0.00270258
0.00252497
0.00242698
0.00239528
0.00243801
0.00266845
0.00339186
0.00502711
0.00583981
0.0024564
0.00178742
0.00247491
0.0036045
0.00561722
0.00833861
0.0110551
0.0131484
0.0146544
0.0155657
0.0158225
0.0153096
0.0139097
0.0118316
0.00946773
0.00728039
0.00561665
0.00461242
0.00410253
0.00384895
0.00371233
0.00363309
0.00358215
0.00353698
0.00347409
0.00337316
0.00323225
0.00307934
0.00295337
0.00288535
0.00288573
0.00294715
0.00306311
0.00325343
0.00359202
0.00427002
0.00598664
0.00632028
0.00250518
0.00323787
0.00785946
0.00725757
0.00650747
0.00826294
0.0109932
0.0132853
0.014823
0.0156272
0.0158206
0.0155057
0.0146397
0.0131726
0.0111614
0.00887181
0.00674365
0.00524497
0.00442629
0.00402312
0.0038174
0.00371336
0.00367425
0.0036789
0.00370569
0.00373039
0.00373142
0.00369976
0.00364771
0.00360481
0.00358816
0.00360661
0.00366139
0.00374991
0.00387635
0.00406683
0.00438622
0.00497436
0.00632149
0.00681833
0.00245795
0.00309539
0.00598556
0.00774549
0.0099085
0.0109963
0.0121106
0.0127526
0.012899
0.012644
0.0120562
0.0111641
0.00997943
0.00855477
0.00705153
0.00572858
0.00474813
0.00411742
0.00373809
0.00351451
0.00339968
0.00337335
0.00342051
0.00352141
0.00364925
0.00377349
0.00386809
0.00392269
0.00395162
0.00398406
0.00403325
0.00410543
0.00420207
0.00431982
0.00446194
0.00464167
0.00487248
0.00519519
0.00598606
0.00709384
0.00242084
0.00289541
0.00248056
0.00246807
0.00253932
0.00259775
0.00251818
0.00236636
0.00219118
0.00201768
0.00185463
0.00170307
0.00156349
0.00144033
0.00134208
0.00127644
0.00124562
0.00123626
0.00124036
0.0012542
0.001275
0.00130013
0.00132719
0.00135432
0.00138042
0.00140519
0.00142913
0.00145335
0.00147921
0.00150802
0.00154091
0.00157855
0.00162183
0.00167299
0.00173649
0.00181987
0.00193217
0.00207819
0.00225224
0.00243629
0.0022863
)
;

boundaryField
{
    floor
    {
        type            compressible::alphatWallFunction;
        Prt             0.85;
        value           nonuniform List<scalar> 
36
(
0.000219912
0.000104504
0.00014992
0.000151121
0.000147518
0.000141469
0.00013334
0.000125178
0.0001176
0.000110716
0.000104501
9.89279e-05
9.38917e-05
8.92773e-05
8.49457e-05
8.07056e-05
7.62445e-05
7.25178e-05
6.49314e-05
6.49306e-05
8.41327e-05
9.63606e-05
0.000106416
0.000127228
0.000168013
0.000160372
0.000219909
0.00023971
0.000229103
0.000219756
0.000104503
0.000219753
0.00018624
0.000266688
0.000232719
0.00026572
)
;
    }
    ceiling
    {
        type            compressible::alphatWallFunction;
        Prt             0.85;
        value           nonuniform List<scalar> 
43
(
0.000391261
0.000338888
0.000337302
0.000346371
0.000353794
0.000343725
0.00032439
0.000301901
0.000279429
0.000258117
0.000238128
0.00021955
0.000203011
0.000189707
0.000180754
0.000176518
0.000175229
0.000175782
0.000177674
0.000180522
0.000183966
0.000187671
0.000191382
0.000194946
0.000198322
0.000201578
0.000204862
0.000208356
0.000212237
0.000216656
0.000221701
0.000227474
0.000234254
0.000242606
0.000253489
0.000268069
0.000286947
0.000309335
0.00033286
0.000313882
0.000368226
0.000382128
0.00024862
)
;
    }
    sWall
    {
        type            compressible::alphatWallFunction;
        Prt             0.85;
        value           nonuniform List<scalar> 9(0.000507611 0.00047791 0.000438245 0.00040229 0.000403465 0.000366651 0.000431969 0.000414352 0.00038951);
    }
    nWall
    {
        type            compressible::alphatWallFunction;
        Prt             0.85;
        value           nonuniform List<scalar> 
14
(
0.000159925
0.000190113
0.000223009
0.000330988
0.000332784
0.000327174
0.000316218
0.000307785
0.000321107
0.000335267
0.000341443
0.000334908
0.000330146
0.0003132
)
;
    }
    sideWalls
    {
        type            empty;
    }
    glass1
    {
        type            compressible::alphatWallFunction;
        Prt             0.85;
        value           nonuniform List<scalar> 9(0.000143924 0.000209129 0.000262682 0.000313286 0.000362354 0.000409972 0.000457975 0.000498832 0.000511209);
    }
    glass2
    {
        type            compressible::alphatWallFunction;
        Prt             0.85;
        value           nonuniform List<scalar> 2(0.000287076 0.000320254);
    }
    sun
    {
        type            compressible::alphatWallFunction;
        Prt             0.85;
        value           nonuniform List<scalar> 
14
(
0.000147958
0.000157642
0.000157087
0.000163757
0.000169844
0.000175351
0.000180461
0.000185372
0.0001903
0.000195522
0.000200486
0.000205188
0.000209807
0.000214759
)
;
    }
    Table_master
    {
        type            compressible::alphatWallFunction;
        Prt             0.85;
        value           nonuniform List<scalar> 9(0.000191005 0.000166831 0.000147907 0.000132902 0.000120817 0.000110957 0.000102835 9.61714e-05 9.09374e-05);
    }
    Table_slave
    {
        type            compressible::alphatWallFunction;
        Prt             0.85;
        value           nonuniform List<scalar> 9(0.000216362 0.000197588 0.000182917 0.000170619 0.000160057 0.0001505 0.000141423 0.000132338 0.00012244);
    }
    inlet
    {
        type            fixedValue;
        value           uniform 1.94e-05;
    }
    outlet
    {
        type            zeroGradient;
    }
}


// ************************************************************************* //
