/*--------------------------------*- C++ -*----------------------------------*\
  =========                 |
  \\      /  F ield         | OpenFOAM: The Open Source CFD Toolbox
   \\    /   O peration     | Website:  https://openfoam.org
    \\  /    A nd           | Version:  6
     \\/     M anipulation  |
\*---------------------------------------------------------------------------*/
FoamFile
{
    version     2.0;
    format      ascii;
    class       volScalarField;
    location    "1510";
    object      alphat;
}
// * * * * * * * * * * * * * * * * * * * * * * * * * * * * * * * * * * * * * //

dimensions      [1 -1 -1 0 0 0 0];

internalField   nonuniform List<scalar> 
458
(
0.00124411
0.00135524
0.00138593
0.00145225
0.00151334
0.00157118
0.00162905
0.0016878
0.00173585
0.00176606
0.0017695
0.00173738
0.00165866
0.00149198
0.0011318
0.000559112
0.000655487
0.000743174
0.000774891
0.00076275
0.000713766
0.000659573
0.000611083
0.000569081
0.000532599
0.000500744
0.000472868
0.00044815
0.000425636
0.000404282
0.00038284
0.000370094
0.00034011
0.00167644
0.00377433
0.00348161
0.00398925
0.00449538
0.00501603
0.00548326
0.00584465
0.00621599
0.00656374
0.00684278
0.00701227
0.00702802
0.00678313
0.00551244
0.00149407
0.00123949
0.00101122
0.000554593
0.00131634
0.00191858
0.00238472
0.00253212
0.00184534
0.00155783
0.00136219
0.00121781
0.00110719
0.00101941
0.000943723
0.000872585
0.000801584
0.000738143
0.000684977
0.0008379
0.000447109
0.00203694
0.00507224
0.00418645
0.00510438
0.00549013
0.00576099
0.00596923
0.00616153
0.00642944
0.0067553
0.00711151
0.00746043
0.00773565
0.00783163
0.00737907
0.00601379
0.00455757
0.00119435
0.000854275
0.00147427
0.00214532
0.00281269
0.00300328
0.000959337
0.000839882
0.000740489
0.000659987
0.000595022
0.000542376
0.000499581
0.000464973
0.000438054
0.000485436
0.000562192
0.000983128
0.000528382
0.00238377
0.00647798
0.00407216
0.00528775
0.00549871
0.00547759
0.00545804
0.00555025
0.00576829
0.00609103
0.00650106
0.00695806
0.0073578
0.00760871
0.00755143
0.00716052
0.00614542
0.00337374
0.00137589
0.00175199
0.00240844
0.00321223
0.00390898
0.00394311
0.00108047
0.000990371
0.000929001
0.000883707
0.000845408
0.000807342
0.000771201
0.000733017
0.000688389
0.000648457
0.00063903
0.00117172
0.000608553
0.00273781
0.00836867
0.00427105
0.00501916
0.00532062
0.00514027
0.00499355
0.00507723
0.00530765
0.00564378
0.00608616
0.00658739
0.00697916
0.00717364
0.00716824
0.00703105
0.00662571
0.00547874
0.00496539
0.00500128
0.00529249
0.00563938
0.00585206
0.00575564
0.00491039
0.00447581
0.00423623
0.00406464
0.003891
0.00366752
0.0032874
0.00279785
0.00224103
0.00170474
0.00127867
0.00119135
0.00103425
0.000813324
0.000860759
0.000935588
0.00311664
0.0104976
0.00584869
0.00464683
0.00506414
0.00505328
0.00486593
0.00493533
0.00517057
0.00550717
0.00595608
0.00643681
0.00679944
0.00691482
0.00680435
0.00664681
0.00657595
0.00648135
0.00667619
0.00701414
0.00725109
0.00729298
0.0071329
0.00679835
0.00633144
0.00595217
0.00565683
0.00539656
0.00514108
0.00486994
0.00451976
0.00403967
0.00343244
0.00274555
0.00210984
0.00152992
0.0012575
0.00109688
0.00138118
0.000970514
0.00348933
0.0121019
0.00872454
0.00571044
0.0049692
0.00504031
0.00510382
0.00514058
0.00527441
0.00557168
0.00601373
0.00649028
0.00682258
0.00685884
0.00664943
0.00649807
0.00674737
0.00730028
0.00786292
0.00818032
0.00818066
0.00790799
0.00744643
0.00688477
0.00632539
0.00587535
0.0055345
0.0052582
0.00501646
0.00479946
0.00460214
0.00434401
0.00391959
0.00335252
0.00276344
0.00219745
0.00182807
0.00167465
0.00159623
0.00115311
0.00357894
0.011215
0.00952693
0.00799821
0.00682854
0.00631029
0.00582363
0.005494
0.00549022
0.0057744
0.00623172
0.0067022
0.00698155
0.00691643
0.00665981
0.00672357
0.00743599
0.00802049
0.00832471
0.0083104
0.00797975
0.00740816
0.00670503
0.00599605
0.00540699
0.00499412
0.00471572
0.00451574
0.00436778
0.00426805
0.00422377
0.00422583
0.00411278
0.00377574
0.00344721
0.00326418
0.003344
0.00353
0.00419316
0.00178524
0.00350477
0.00423034
0.00467526
0.00492481
0.00496207
0.00488888
0.00489237
0.00510068
0.00552058
0.00605434
0.00659955
0.0070283
0.00716481
0.00691742
0.0068471
0.00720848
0.00762624
0.00776919
0.00766517
0.00730219
0.00669403
0.00594311
0.00519343
0.00457835
0.00415274
0.0038817
0.0036999
0.00356177
0.00344396
0.00333339
0.00321995
0.00309538
0.0029824
0.00288457
0.00281978
0.00278323
0.00271375
0.00257076
0.00239709
0.0016667
0.00157972
0.00276045
0.00377656
0.00457228
0.00530118
0.00601032
0.0065718
0.00694772
0.00719164
0.00722421
0.00698592
0.0066971
0.00669805
0.00681753
0.00672563
0.00645475
0.00602767
0.0054526
0.00479133
0.00414527
0.00363096
0.00328458
0.0030722
0.00294187
0.00285531
0.00279223
0.00274389
0.00270816
0.0026881
0.00269435
0.00271008
0.00272409
0.0027248
0.00268167
0.00254868
0.00231441
0.00202419
0.00134113
0.00238085
0.00465378
0.00595166
0.0067923
0.00744593
0.00749588
0.00710383
0.00671003
0.00637251
0.00573436
0.00528081
0.00517531
0.00510373
0.00490387
0.00460277
0.00422964
0.00379214
0.00333182
0.00291681
0.002594
0.00237139
0.00224307
0.00218293
0.00216997
0.00219121
0.0022384
0.00230447
0.00238085
0.00247031
0.00257296
0.00268281
0.00279064
0.00287837
0.00292217
0.00288127
0.00284557
0.00261995
0.00135861
0.00249159
0.00255349
0.00260943
0.00289321
0.00272901
0.00241419
0.00203349
0.00172838
0.00154183
0.00136501
0.00120953
0.00108787
0.000984903
0.000906884
0.000852668
0.000813057
0.000781201
0.000753789
0.000731156
0.000715883
0.000710183
0.000714458
0.000727143
0.000745793
0.000769357
0.000797281
0.000829408
0.000865927
0.000907442
0.000955245
0.00100964
0.00107022
0.00113729
0.00121118
0.0012919
0.00138863
0.00143094
0.0014016
0.00130366
0.00120556
)
;

boundaryField
{
    floor
    {
        type            compressible::alphatWallFunction;
        Prt             0.85;
        value           nonuniform List<scalar> 
36
(
0.000160686
7.82021e-05
9.26087e-05
0.000105493
0.000110108
0.000108345
0.000101194
9.32144e-05
8.60064e-05
7.9706e-05
7.41869e-05
6.93291e-05
6.50465e-05
6.12222e-05
5.77158e-05
5.4368e-05
5.09834e-05
4.89602e-05
4.41644e-05
4.41638e-05
6.10613e-05
7.3547e-05
8.56301e-05
0.000115679
0.000122505
0.000133176
0.000160684
0.000210153
0.000175556
0.00014384
7.82011e-05
0.000143838
7.75187e-05
0.00016934
0.000121559
0.000194184
)
;
    }
    ceiling
    {
        type            compressible::alphatWallFunction;
        Prt             0.85;
        value           nonuniform List<scalar> 
43
(
0.000340273
0.000348137
0.000355228
0.000391033
0.000370443
0.000330548
0.000281535
0.000241535
0.000216697
0.000192842
0.000171573
0.000154712
0.000140272
0.000129212
0.000121461
0.000115761
0.000111153
0.00010717
0.000103868
0.000101633
0.000100797
0.000101424
0.000103281
0.000106005
0.000109435
0.000113483
0.000118119
0.000123364
0.000129294
0.000136083
0.00014376
0.000152254
0.000161593
0.000171808
0.000182888
0.000196063
0.000201792
0.000197822
0.000184498
0.000171039
0.000467119
0.000555328
0.000326054
)
;
    }
    sWall
    {
        type            compressible::alphatWallFunction;
        Prt             0.85;
        value           uniform 0.00033903;
    }
    nWall
    {
        type            compressible::alphatWallFunction;
        Prt             0.85;
        value           nonuniform List<scalar> 6(0.000132957 0.000137898 0.000163427 0.000189266 0.000191642 0.000170698);
    }
    sideWalls
    {
        type            empty;
    }
    glass1
    {
        type            compressible::alphatWallFunction;
        Prt             0.85;
        value           nonuniform List<scalar> 9(0.000171659 0.000229165 0.000275989 0.000320287 0.000364868 0.000411951 0.000457737 0.000468806 0.000459996);
    }
    glass2
    {
        type            compressible::alphatWallFunction;
        Prt             0.85;
        value           nonuniform List<scalar> 2(0.000247084 0.000231542);
    }
    sun
    {
        type            compressible::alphatWallFunction;
        Prt             0.85;
        value           nonuniform List<scalar> 
14
(
0.000176209
0.000191379
0.000195547
0.00020452
0.000212745
0.000220498
0.000228223
0.000236036
0.000242402
0.000246395
0.000246848
0.000242604
0.000232163
0.000209871
)
;
    }
    Table_master
    {
        type            compressible::alphatWallFunction;
        Prt             0.85;
        value           nonuniform List<scalar> 9(0.000136676 0.000119639 0.000105244 9.34143e-05 8.37393e-05 7.58031e-05 6.9281e-05 6.39553e-05 5.97781e-05);
    }
    Table_slave
    {
        type            compressible::alphatWallFunction;
        Prt             0.85;
        value           nonuniform List<scalar> 9(0.000153702 0.000141063 0.000132377 0.000125924 0.000120436 0.000114953 0.000109718 0.000104156 9.76094e-05);
    }
    inlet
    {
        type            fixedValue;
        value           uniform 1.94e-05;
    }
    outlet
    {
        type            zeroGradient;
    }
}


// ************************************************************************* //
