/*--------------------------------*- C++ -*----------------------------------*\
  =========                 |
  \\      /  F ield         | OpenFOAM: The Open Source CFD Toolbox
   \\    /   O peration     | Website:  https://openfoam.org
    \\  /    A nd           | Version:  6
     \\/     M anipulation  |
\*---------------------------------------------------------------------------*/
FoamFile
{
    version     2.0;
    format      ascii;
    class       surfaceScalarField;
    location    "4330";
    object      phi;
}
// * * * * * * * * * * * * * * * * * * * * * * * * * * * * * * * * * * * * * //

dimensions      [1 0 -1 0 0 0 0];

internalField   nonuniform List<scalar> 
850
(
-0.00305311
0.00311357
-0.00414582
0.0010927
-0.0050149
0.000869088
-0.00570375
0.000688851
-0.00617583
0.000472075
-0.00639707
0.00022124
-0.00632785
-6.92193e-05
-0.00592402
-0.00040383
-0.00517376
-0.000750256
-0.00412859
-0.00104517
-0.00290029
-0.00122831
-0.00164149
-0.0012588
-0.00053899
-0.0011025
0.000135921
-0.00067491
0.000138271
-0.000922421
0.000926077
-0.000690029
-0.000232392
-6.07992e-05
-0.000629229
0.000542641
-0.00060344
0.00100182
-0.00045918
0.0012584
-0.000256574
0.00136651
-0.000108115
0.00141933
-5.28167e-05
0.00144968
-3.03534e-05
0.00146475
-1.50659e-05
0.00146836
-3.61075e-06
0.00146136
6.99981e-06
0.0014381
2.32539e-05
0.00137958
5.8521e-05
0.00125366
0.000125919
0.00105008
0.000203579
0.000793442
0.000256643
0.000798281
-0.00220745
0.00548442
-0.0032951
0.00218035
-0.00420832
0.00178231
-0.00490609
0.00138662
-0.0053876
0.000953583
-0.00563053
0.000464175
-0.0055945
-0.000105253
-0.00524029
-0.000758037
-0.00456677
-0.00142377
-0.00364272
-0.00196923
-0.00258802
-0.002283
-0.00154149
-0.00230533
-0.000628657
-0.00201533
9.29414e-05
-0.00139651
0.00087276
-0.000641547
0.00114861
-0.000272063
0.000956839
0.000196127
0.000969527
4.15192e-05
0.000895559
0.000421775
-0.000612648
0.000786655
-0.00099411
0.00109962
-0.000916408
0.00135047
-0.00071003
0.00140694
-0.00031304
0.00141508
-0.000116251
0.0014258
-6.35416e-05
0.00143479
-3.9339e-05
0.00144005
-2.03337e-05
0.00144222
-5.77434e-06
0.00144183
7.391e-06
0.00143635
2.87322e-05
0.00139989
9.49771e-05
0.00124701
0.000278798
0.000978551
0.000472041
0.00064461
0.000590584
0.00145527
-0.00156234
0.00729718
-0.00251037
0.00312839
-0.003343
0.00261494
-0.00396557
0.00200918
-0.00441314
0.00140116
-0.00466166
0.000712693
-0.00465599
-0.000110923
-0.00433469
-0.00107934
-0.00371314
-0.00204532
-0.00288871
-0.00279366
-0.00198659
-0.00318512
-0.00112266
-0.00316927
-0.000373453
-0.00276453
0.000240547
-0.00201051
0.000752047
-0.00115305
0.000899397
-0.000419413
0.000707506
0.000388018
0.0016883
0.00143724
-0.000527842
0.00163274
-0.000808146
0.00157514
-0.000936511
0.00160842
-0.000949695
0.00181169
-0.000913295
0.0014988
0.0013827
0.00131932
0.00128013
0.00125995
0.00125433
0.00126188
0.00129076
0.00138589
0.00115887
0.000505824
0.000869987
0.000760921
0.000498889
0.000961681
0.00197273
-0.00109547
0.0087173
-0.00185228
0.00388519
-0.0024366
0.00319926
-0.00288268
0.00245526
-0.00322781
0.00174628
-0.00344067
0.000925556
-0.00344208
-0.000109521
-0.00312366
-0.00139775
-0.00254778
-0.0026212
-0.00184607
-0.00349538
-0.00113041
-0.00390078
-0.000480685
-0.00381899
6.57889e-05
-0.00331101
0.000526384
-0.0024711
0.000902484
-0.00152915
0.00111956
-0.000636486
0.00130374
0.000203835
0.0022575
0.000734534
0.0021677
0.000101745
0.00199492
-0.000355065
0.00190895
-0.00072218
0.00179815
-0.000825712
0.00166595
-0.000817495
0.00143499
-0.000682333
0.0017586
-0.000323763
0.00193627
-0.000177824
0.0020672
-0.000131085
0.002168
-0.000100946
0.00222823
-6.03845e-05
0.00222567
2.40128e-06
0.00213278
9.2736e-05
0.00191323
0.0002194
0.00150707
0.000406004
0.00126968
0.000743215
0.000902426
0.00112818
0.000384082
0.00148002
0.00238045
-0.000756067
0.00986109
-0.00132705
0.00445618
-0.00150962
0.00338184
-0.00168822
0.00263386
-0.00185321
0.00191127
-0.00196223
0.00103458
-0.00191377
-0.000157983
-0.00155674
-0.00175479
-0.00105572
-0.00312222
-0.000537806
-0.00401329
-7.3313e-05
-0.00436527
0.00030534
-0.00419765
0.00059651
-0.00360218
0.000849392
-0.00272399
0.00106873
-0.00174849
0.00127614
-0.000843892
0.00158682
-0.00010684
0.00203037
0.000290979
0.00206424
6.7872e-05
0.00199693
-0.000287753
0.00181243
-0.000537683
0.00162456
-0.000637838
0.00144747
-0.000640406
0.00131879
-0.000553654
0.00137755
-0.000382523
0.00146562
-0.000265888
0.00155009
-0.000215561
0.00163158
-0.000182438
0.00170172
-0.000130523
0.00174075
-3.66317e-05
0.00172469
0.0001088
0.00163843
0.000305663
0.00148619
0.000558239
0.00133011
0.000899299
0.00115113
0.00130716
0.000804094
0.00182706
0.00101982
0.00216473
-0.00109517
0.00213611
-0.00179343
0.000717876
-0.00172066
-0.000638709
0.0109406
-0.00101437
0.00483184
-0.00063343
0.0030009
-0.000448693
0.00244913
-0.000384075
0.00184665
-0.00030372
0.000954229
-5.19325e-05
-0.000409771
0.000334474
-0.00214119
0.000692158
-0.0034799
0.000952006
-0.00427314
0.00109503
-0.00450829
0.00114536
-0.00424797
0.00113926
-0.00359608
0.00111607
-0.0027008
0.00110061
-0.00173302
0.00113278
-0.000876062
0.00126984
-0.000243905
0.00148461
7.62062e-05
0.00153588
1.66096e-05
0.0014379
-0.000189779
0.00126353
-0.000363307
0.00108386
-0.000458174
0.000926563
-0.000483106
0.000821541
-0.000448631
0.000810745
-0.000371727
0.000860093
-0.000315236
0.000936264
-0.000291732
0.00102701
-0.000273186
0.00112584
-0.000229356
0.00122285
-0.000133637
0.00129576
3.58888e-05
0.00133282
0.000268603
0.00134812
0.000542939
0.00138214
0.00086528
0.00148259
0.0012067
0.00168608
0.00162358
0.00203682
0.00181399
0.00233694
0.00183598
0.00182999
0.00122483
0.000174762
-0.000763857
0.0121917
-0.000621478
0.00468946
0.00049228
0.00188714
0.000960632
0.00198077
0.00121799
0.00158929
0.00159949
0.000572727
0.00210278
-0.000913054
0.00243994
-0.00247835
0.00257374
-0.0036137
0.00250619
-0.00420559
0.00227297
-0.00427507
0.00193601
-0.00391102
0.00155909
-0.00321915
0.00120034
-0.00234206
0.000896621
-0.0014293
0.000705089
-0.00068453
0.000653499
-0.000192315
0.000704661
2.50433e-05
0.000712742
8.52857e-06
0.000636481
-0.000113517
0.000509156
-0.000235982
0.00036886
-0.000317878
0.000242961
-0.000357207
0.000156852
-0.000362522
0.000133892
-0.000348767
0.0001629
-0.000344244
0.00022253
-0.000351362
0.000302987
-0.000353643
0.000405274
-0.000331643
0.000534364
-0.000262727
0.000687269
-0.000117016
0.00084521
0.000110661
0.00100721
0.000380935
0.00120906
0.000663429
0.00148366
0.000932109
0.00188404
0.0012232
0.00241744
0.00128059
0.00318504
0.00106838
0.00336162
0.00104825
0.00360519
0.00273593
0.00999912
0.0033917
0.00403368
0.00344936
0.00182948
0.00353505
0.00189509
0.00374632
0.00137802
0.00422223
9.68146e-05
0.00469337
-0.00138419
0.00478839
-0.00257338
0.00451406
-0.00333937
0.00396091
-0.00365243
0.00322974
-0.0035439
0.00242475
-0.00310603
0.00162793
-0.00242232
0.000922025
-0.00163615
0.000347366
-0.000854644
-2.51332e-06
-0.00033465
-0.000140826
-5.40022e-05
-0.000155254
3.94709e-05
-0.000163106
1.63811e-05
-0.000215236
-6.13875e-05
-0.000306055
-0.000145163
-0.000412282
-0.000211651
-0.0005116
-0.000257889
-0.000585869
-0.000288253
-0.000623867
-0.00031077
-0.000633079
-0.000335031
-0.000625255
-0.000359187
-0.000604692
-0.000374205
-0.000566412
-0.000369923
-0.000494194
-0.000334945
-0.00035673
-0.00025448
-0.000146597
-9.94723e-05
0.000104173
0.000130166
0.000388869
0.000378734
0.000707311
0.000613667
0.00108958
0.000840922
0.00150689
0.000863286
0.00189864
0.000676623
0.00120605
0.00174085
0.00509765
0.010598
0.0146275
0.0125614
0.00389561
0.0112292
0.00322726
0.0103408
0.0022665
0.00953392
0.000903649
0.00853149
-0.00038176
0.00735256
-0.00139445
0.00607927
-0.00206609
0.00476044
-0.0023336
0.00342924
-0.0022127
0.00216421
-0.00184099
0.00100939
-0.00126751
5.63609e-05
-0.000683126
-0.000566051
-0.000232232
-0.000859638
-4.10633e-05
-0.000956774
4.31336e-05
-0.000976433
5.91297e-05
-0.000991822
3.17707e-05
-0.00103526
-1.79536e-05
-0.00110784
-7.25823e-05
-0.00119687
-0.000122617
-0.00128868
-0.000166081
-0.0013743
-0.000202628
-0.0014515
-0.000233574
-0.00152704
-0.000259491
-0.0016102
-0.000276025
-0.00170952
-0.000274886
-0.00183466
-0.000244785
-0.00199852
-0.000171089
-0.00221651
-3.64832e-05
-0.00248301
0.000167029
-0.00280698
0.000454136
-0.00327095
0.000842702
-0.00398815
0.00133087
-0.0050297
0.00188246
-0.00651691
0.0023505
-0.00825536
0.00241507
-0.00777181
0.0012573
-0.00235715
0.00895045
0.00560354
0.00747188
0.00470583
0.00708001
0.00265837
0.00672918
0.00125448
0.00611919
0.000228229
0.00524677
-0.000522029
0.00417817
-0.000997493
0.00298278
-0.00113821
0.00169119
-0.000921121
0.000430336
-0.000580136
-0.000609534
-0.000227638
-0.00127074
-2.19167e-05
-0.00156322
6.02455e-05
-0.00167789
7.36093e-05
-0.00170786
7.31025e-05
-0.00171363
6.49001e-05
-0.00172865
4.67938e-05
-0.00176747
2.08583e-05
-0.00183139
-8.65925e-06
-0.00191294
-4.10685e-05
-0.00200444
-7.45763e-05
-0.00210375
-0.000103321
-0.0022122
-0.000125122
-0.00233323
-0.000138467
-0.00246896
-0.000140292
-0.00261827
-0.000125575
-0.00277573
-8.73193e-05
-0.00292901
-1.78159e-05
-0.00306256
9.70683e-05
-0.00317483
0.000279303
-0.00327578
0.000555079
-0.00337728
0.00094421
-0.00348611
0.00143969
-0.00356962
0.00196597
-0.003568
0.00234888
-0.00331004
0.00215711
-0.00195005
-0.000102687
-0.00422387
-0.000826097
0.00648296
0.000742104
0.00313763
0.00140781
0.00199267
0.00164672
0.00101557
0.00158289
0.000292056
0.00121188
-0.000151015
0.000529658
-0.000315271
-0.000363767
-0.000244781
-0.00124109
-4.38025e-05
-0.00188639
6.51637e-05
-0.00222712
0.000113101
-0.00235809
0.000109045
-0.00238118
8.33413e-05
-0.00237095
6.33797e-05
-0.00234988
5.20343e-05
-0.00232932
4.43368e-05
-0.00231833
3.5806e-05
-0.00232221
2.47383e-05
-0.00234159
1.07133e-05
-0.00237543
-7.22681e-06
-0.00242402
-2.5987e-05
-0.00248537
-4.19695e-05
-0.00255738
-5.31067e-05
-0.00263754
-5.83074e-05
-0.00272178
-5.60503e-05
-0.00280353
-4.38337e-05
-0.0028733
-1.75467e-05
-0.00291854
2.74311e-05
-0.00291853
9.70506e-05
-0.00284797
0.000208742
-0.00267232
0.000379431
-0.00236026
0.00063215
-0.00190395
0.000983385
-0.00128938
0.0013514
-0.000299693
0.00135919
0.00114765
0.000709773
0.00164262
-0.000597657
-0.00248957
-0.0120486
-0.0155771
-0.00905364
-0.0058886
-0.00387366
-0.00283949
-0.0025324
-0.00267141
-0.00297675
-0.00321303
-0.00324917
-0.00317672
-0.00305648
-0.00294033
-0.00284986
-0.00277933
-0.00272012
-0.00266856
-0.00262549
-0.00259345
-0.00257542
-0.00257537
-0.00259416
-0.00262905
-0.00267521
-0.0027267
-0.00277611
-0.00281346
-0.00282473
-0.00279122
-0.00268831
-0.00247394
-0.00208913
-0.00145188
-0.000463681
0.000892144
0.00225548
0.0029693
0.00237582
)
;

boundaryField
{
    floor
    {
        type            calculated;
        value           nonuniform List<scalar> 
36
(
0
0
0
0
0
0
0
0
0
0
0
0
0
0
0
0
0
0
0
-4.83914e-06
-1.23781e-05
-1.85697e-05
-2.36404e-05
-2.11162e-05
-1.96191e-05
-1.84535e-05
-2.35097e-06
-3.78399e-06
-4.35946e-06
-5.04476e-06
-3.65657e-06
-7.64391e-06
-1.10004e-05
-1.12624e-05
-1.38364e-05
-1.19395e-05
)
;
    }
    ceiling
    {
        type            calculated;
        value           nonuniform List<scalar> 
43
(
-4.1844e-05
-4.11787e-05
-4.04782e-05
-2.74141e-05
-2.22701e-05
-1.86048e-05
-1.50289e-05
-1.20046e-05
-9.92942e-06
-8.50214e-06
-7.66632e-06
-7.28569e-06
-7.13796e-06
-7.11118e-06
-7.12496e-06
-7.14629e-06
-7.17749e-06
-7.22031e-06
-7.26662e-06
-7.30721e-06
-7.31481e-06
-7.27611e-06
-7.19263e-06
-7.08109e-06
-6.95226e-06
-6.80913e-06
-6.64849e-06
-6.47522e-06
-6.28369e-06
-6.07858e-06
-5.85896e-06
-5.62508e-06
-5.37646e-06
-5.10581e-06
-4.81119e-06
-4.42481e-06
-4.13949e-06
-4.04925e-06
-4.18129e-06
-3.60358e-06
6.94074e-06
4.17887e-06
-5.3314e-05
)
;
    }
    sWall
    {
        type            calculated;
        value           uniform -0.0002414;
    }
    nWall
    {
        type            calculated;
        value           nonuniform List<scalar> 6(-5.43171e-05 -6.54339e-05 -6.88139e-05 -8.33266e-05 -9.16857e-05 -0.00011014);
    }
    sideWalls
    {
        type            empty;
        value           nonuniform 0();
    }
    glass1
    {
        type            calculated;
        value           nonuniform List<scalar> 9(-6.04583e-05 -0.000163401 -0.000250424 -0.000324644 -0.000387723 -0.000440785 -0.00048727 -0.000543331 -0.000605862);
    }
    glass2
    {
        type            calculated;
        value           nonuniform List<scalar> 2(-0.000286411 -0.000317012);
    }
    sun
    {
        type            calculated;
        value           uniform 0;
    }
    Table_master
    {
        type            calculated;
        value           nonuniform List<scalar> 9(-1.5364e-07 -1.53789e-07 -1.53839e-07 -1.53869e-07 -1.53889e-07 -1.53902e-07 -1.53906e-07 -1.539e-07 -1.5387e-07);
    }
    Table_slave
    {
        type            calculated;
        value           nonuniform List<scalar> 9(1.5353e-07 1.53515e-07 1.53468e-07 1.53431e-07 1.53408e-07 1.53408e-07 1.53413e-07 1.53451e-07 1.53535e-07);
    }
    inlet
    {
        type            calculated;
        value           uniform -0.0106584;
    }
    outlet
    {
        type            calculated;
        value           nonuniform List<scalar> 2(0.0123318 0.00356969);
    }
}


// ************************************************************************* //
