/*--------------------------------*- C++ -*----------------------------------*\
  =========                 |
  \\      /  F ield         | OpenFOAM: The Open Source CFD Toolbox
   \\    /   O peration     | Website:  https://openfoam.org
    \\  /    A nd           | Version:  6
     \\/     M anipulation  |
\*---------------------------------------------------------------------------*/
FoamFile
{
    version     2.0;
    format      ascii;
    class       volScalarField;
    location    "10400";
    object      k;
}
// * * * * * * * * * * * * * * * * * * * * * * * * * * * * * * * * * * * * * //

dimensions      [0 2 -2 0 0 0 0];

internalField   nonuniform List<scalar> 
778
(
0.00158592
0.00180119
0.00178815
0.0019468
0.00209811
0.00224043
0.00237711
0.00251269
0.00265295
0.00280616
0.00295619
0.00310225
0.00324952
0.00341171
0.00358518
0.000792767
0.00162466
0.00165081
0.00157168
0.00144388
0.00128179
0.00112995
0.000998503
0.000886909
0.000792434
0.000712719
0.000644721
0.000585749
0.000533265
0.000484556
0.000436122
0.000397869
0.00032604
0.00340694
0.00643357
0.00268772
0.00274638
0.00288814
0.00305477
0.00323515
0.00343089
0.00364402
0.00387415
0.00412592
0.00437926
0.00459455
0.00469939
0.0045935
0.00429703
0.00390599
0.00357895
0.00253719
0.00281235
0.00295378
0.0028954
0.00266218
0.00226329
0.00190435
0.00160844
0.00136901
0.00117541
0.00101675
0.000885029
0.000773814
0.000681027
0.00061503
0.000574497
0.000864491
0.000524002
0.00549067
0.0127815
0.00347821
0.00321242
0.0032978
0.00345567
0.00363706
0.00384119
0.00407139
0.00432775
0.0046355
0.00501038
0.00544995
0.00595888
0.00652954
0.00685813
0.0062761
0.00538482
0.00403799
0.00416964
0.00417237
0.00397418
0.00357584
0.00266364
0.00201363
0.00157436
0.00126843
0.00104863
0.000886488
0.000764315
0.000671603
0.000603465
0.000551319
0.000548561
0.0011665
0.000678157
0.00797332
0.0217593
0.00449149
0.00339102
0.00334182
0.00343839
0.00354974
0.00366915
0.00380927
0.00399138
0.00425896
0.00464794
0.00517019
0.00582373
0.00655308
0.0071332
0.00722736
0.00724453
0.00534215
0.00554859
0.00537571
0.0051254
0.00478663
0.00434759
0.00345521
0.00285808
0.00243473
0.00210857
0.0018492
0.00163084
0.00143756
0.00125766
0.00107681
0.000799934
0.00065924
0.00142415
0.000821878
0.010876
0.0336362
0.00621322
0.00342524
0.00315854
0.0031672
0.00318977
0.00320999
0.00325218
0.00336104
0.00359451
0.00398864
0.00455239
0.00527515
0.00608505
0.00681571
0.00728142
0.00764212
0.00751465
0.00665239
0.00607236
0.00557865
0.00509887
0.00462908
0.00412262
0.00366484
0.003274
0.00293621
0.00262993
0.0023465
0.00207801
0.00181737
0.00155398
0.00122089
0.000928973
0.00119086
0.00121618
0.0011699
0.0020769
0.00188641
0.0141743
0.0476012
0.00928452
0.00349022
0.00290874
0.0028229
0.00276449
0.00269956
0.00266417
0.00273449
0.00298068
0.00341387
0.00402257
0.00479607
0.00565128
0.00645851
0.00706569
0.00740412
0.00732064
0.0067877
0.00621379
0.00563658
0.00507403
0.00455575
0.00409099
0.00369525
0.00336259
0.00307308
0.00280603
0.00255062
0.00229797
0.00204122
0.00177304
0.00147058
0.00117668
0.00111145
0.00111053
0.00173358
0.00518351
0.00268671
0.0179914
0.0606091
0.0143611
0.00381962
0.00271532
0.00252946
0.00241179
0.00229394
0.0022209
0.00231154
0.0026304
0.0031393
0.00380145
0.00462996
0.0055262
0.00636373
0.00699753
0.00732472
0.00725146
0.00681592
0.00621414
0.00555423
0.00491163
0.0043426
0.00387235
0.00350035
0.00320668
0.00296174
0.00274118
0.00252866
0.00231275
0.0020863
0.00184449
0.00158234
0.00132563
0.00115706
0.00109079
0.00158227
0.00643567
0.00375919
0.0216404
0.0704849
0.0214381
0.00510188
0.00274265
0.00237171
0.00220996
0.00208166
0.002026
0.00221936
0.00264999
0.00323128
0.00393725
0.00477398
0.00569778
0.00657156
0.00722106
0.00751107
0.00738169
0.00689439
0.00619727
0.00542667
0.00469155
0.00406459
0.00357461
0.00321277
0.00294808
0.00274151
0.00256464
0.00239594
0.0022217
0.00203457
0.00183124
0.00161222
0.00139501
0.00122347
0.00115225
0.00219829
0.014692
0.00660256
0.0228323
0.0694925
0.0325368
0.0110556
0.00406571
0.00258669
0.00223499
0.00210247
0.00218935
0.00251202
0.0030005
0.00360246
0.00433315
0.00521336
0.00618561
0.00708733
0.00771583
0.00792082
0.00766223
0.00702388
0.00616473
0.00524887
0.00440831
0.00372327
0.00321746
0.00286978
0.00263662
0.00247025
0.0023374
0.00221211
0.00207953
0.00193263
0.00176922
0.00159144
0.00141184
0.00127095
0.0013307
0.00440642
0.03041
0.0084297
0.021917
0.0516334
0.0336438
0.0174313
0.00858333
0.00475546
0.00325868
0.0027284
0.00285157
0.00320971
0.0036718
0.00424653
0.00499649
0.00594066
0.00697707
0.00788973
0.00844197
0.00848212
0.00800103
0.007122
0.0060412
0.00495544
0.00401363
0.00329286
0.00279977
0.00249042
0.00230409
0.0021863
0.00209833
0.00201332
0.00191778
0.00180614
0.00167738
0.00153429
0.00138737
0.00128341
0.00164741
0.0102809
0.0257456
0.00874534
0.019232
0.0394371
0.0302378
0.0195639
0.0121783
0.00793431
0.00571302
0.00466548
0.00435872
0.00439679
0.00465038
0.00514452
0.0059365
0.00698508
0.00809432
0.00896926
0.00934516
0.00909492
0.00826991
0.00705819
0.00571199
0.00446279
0.00346572
0.00277225
0.00235117
0.00211755
0.00199335
0.00192618
0.00187664
0.00182302
0.00175548
0.00167044
0.00156819
0.00145328
0.00133867
0.00129111
0.00189294
0.0092301
0.0258915
0.0089793
0.0159487
0.0315887
0.0266521
0.0195381
0.0139736
0.0102809
0.00802351
0.00674677
0.0060445
0.00572688
0.00577965
0.00627327
0.00721216
0.0084248
0.00957626
0.0102912
0.0103139
0.00959121
0.00828104
0.00666167
0.00505693
0.0037249
0.00279715
0.00223736
0.00195731
0.0018177
0.00174925
0.00171596
0.00168878
0.00165346
0.0016032
0.00153555
0.00145203
0.00136276
0.00128992
0.00136539
0.00240921
0.00904975
0.0231324
0.0100061
0.0132666
0.0256794
0.0233566
0.018692
0.0145837
0.011587
0.00954141
0.00820687
0.00729689
0.00683689
0.00695569
0.00772019
0.00898457
0.0103766
0.0114198
0.0117157
0.0111081
0.00968797
0.00777899
0.00575699
0.00403234
0.00283779
0.00219532
0.00186249
0.00169935
0.00161957
0.00158029
0.00155949
0.00153837
0.00150783
0.00146335
0.00140442
0.00133682
0.00128062
0.00131887
0.00183357
0.00370383
0.00978419
0.0220239
0.00969281
0.0133518
0.0224299
0.0220673
0.0177652
0.0143954
0.0118954
0.010084
0.00876844
0.00791683
0.00777216
0.00847212
0.00987256
0.0115378
0.0128905
0.0134212
0.012852
0.0112716
0.00896831
0.00651123
0.00430312
0.00295825
0.00221816
0.0018476
0.00166192
0.00156605
0.00151336
0.00148127
0.00145748
0.00143061
0.00139484
0.00134799
0.00129261
0.00124402
0.00126239
0.00157492
0.00274836
0.00551095
0.0108566
0.0184361
0.00848473
0.0108767
0.0117678
0.0129254
0.0125538
0.0113759
0.0100765
0.0089489
0.00820459
0.00830134
0.00941299
0.0112926
0.0133709
0.0149735
0.0155569
0.0148572
0.0128784
0.0101309
0.00700167
0.00462164
0.00312027
0.00233059
0.00194064
0.0017424
0.00162948
0.0015568
0.00150474
0.00146326
0.00142605
0.00138778
0.00134518
0.00129958
0.00125886
0.00125018
0.00136177
0.00184934
0.00325093
0.00620312
0.0110416
0.0163668
0.00772473
0.00353939
0.00481817
0.00599202
0.0066021
0.00728429
0.00879409
0.0113053
0.0141354
0.0165609
0.0180111
0.0181147
0.0167864
0.0142383
0.0105984
0.00728841
0.00479735
0.00329663
0.00252858
0.00216618
0.00198102
0.00186632
0.00178051
0.00170914
0.00164748
0.00159435
0.0015503
0.00151839
0.00150044
0.00149817
0.00151727
0.00157841
0.0017509
0.0022221
0.00340369
0.0059325
0.0103773
0.0173916
0.00833503
0.00444559
0.00628983
0.00811066
0.0110245
0.0146946
0.0181515
0.0203871
0.021456
0.0213957
0.0201891
0.0176504
0.0141612
0.0104738
0.00715685
0.00481848
0.00347502
0.00283135
0.00254321
0.0024014
0.00231441
0.0022488
0.00219336
0.00214616
0.00211029
0.00209191
0.00209795
0.00213194
0.00219699
0.00229071
0.00240799
0.00255893
0.00279129
0.00323067
0.00415005
0.00616051
0.0113205
0.016354
0.00943644
0.0150698
0.0244998
0.0181258
0.0144014
0.0170102
0.0206967
0.0228157
0.0235104
0.0230567
0.0217074
0.0197039
0.0170667
0.0138779
0.0105089
0.00749752
0.00531917
0.00409908
0.00354222
0.00331468
0.00322374
0.00318633
0.0031656
0.00314372
0.00311485
0.00308396
0.0030641
0.00307089
0.00311677
0.00320848
0.00334825
0.00353835
0.00378683
0.00411181
0.00456711
0.00527771
0.00644691
0.00864146
0.0150392
0.0177187
0.0100967
0.0138051
0.0170559
0.0178438
0.0207573
0.021698
0.0221188
0.021124
0.0193134
0.0171977
0.0150271
0.0128998
0.010856
0.00893563
0.00723133
0.00585264
0.00489737
0.00434577
0.00407306
0.0039731
0.00398051
0.00405145
0.00415158
0.00425429
0.00434351
0.00441642
0.00448281
0.0045608
0.00467117
0.00483409
0.00506958
0.00540179
0.00586422
0.00650434
0.00738062
0.00856677
0.0102044
0.0125219
0.0170263
0.0208912
0.0106579
0.012138
0.00891526
0.00883057
0.00935919
0.00981242
0.00925766
0.00821086
0.0070675
0.00600626
0.00507063
0.00425279
0.00354685
0.002971
0.00255858
0.00232818
0.00223211
0.00221675
0.00224905
0.002308
0.00238039
0.00245761
0.00253438
0.00260832
0.00267988
0.00275209
0.00283001
0.00292014
0.00303037
0.0031712
0.00335821
0.00361436
0.00396943
0.00445374
0.00508744
0.00587445
0.00681033
0.00789744
0.00914346
0.0104817
0.00920589
)
;

boundaryField
{
    floor
    {
        type            kqRWallFunction;
        value           nonuniform List<scalar> 
36
(
0.00358518
0.000792767
0.00162466
0.00165081
0.00157168
0.00144388
0.00128179
0.00112995
0.000998503
0.000886909
0.000792434
0.000712719
0.000644721
0.000585749
0.000533265
0.000484556
0.000436122
0.000397869
0.00032604
0.00032604
0.000524002
0.000678157
0.000821878
0.0011699
0.0020769
0.00188641
0.00358518
0.00429703
0.00390599
0.00357895
0.000792767
0.00357895
0.00253719
0.00538482
0.00403799
0.00534215
)
;
    }
    ceiling
    {
        type            kqRWallFunction;
        value           nonuniform List<scalar> 
43
(
0.012138
0.00891526
0.00883057
0.00935919
0.00981242
0.00925766
0.00821086
0.0070675
0.00600626
0.00507063
0.00425279
0.00354685
0.002971
0.00255858
0.00232818
0.00223211
0.00221675
0.00224905
0.002308
0.00238039
0.00245761
0.00253438
0.00260832
0.00267988
0.00275209
0.00283001
0.00292014
0.00303037
0.0031712
0.00335821
0.00361436
0.00396943
0.00445374
0.00508744
0.00587445
0.00681033
0.00789744
0.00914346
0.0104817
0.00920589
0.0108767
0.0117678
0.00444559
)
;
    }
    sWall
    {
        type            kqRWallFunction;
        value           nonuniform List<scalar> 9(0.021917 0.019232 0.0159487 0.0132666 0.0133518 0.0108767 0.0150698 0.0138051 0.012138);
    }
    nWall
    {
        type            kqRWallFunction;
        value           nonuniform List<scalar> 
14
(
0.00188641
0.00268671
0.00375919
0.00874534
0.0089793
0.0100061
0.00969281
0.00848473
0.00772473
0.00833503
0.00943644
0.0100967
0.0106579
0.00920589
)
;
    }
    sideWalls
    {
        type            empty;
    }
    glass1
    {
        type            kqRWallFunction;
        value           nonuniform List<scalar> 9(0.00158592 0.00340694 0.00549067 0.00797332 0.010876 0.0141743 0.0179914 0.0216404 0.0228323);
    }
    glass2
    {
        type            kqRWallFunction;
        value           nonuniform List<scalar> 2(0.00660256 0.0084297);
    }
    sun
    {
        type            kqRWallFunction;
        value           nonuniform List<scalar> 
14
(
0.00158592
0.00180119
0.00178815
0.0019468
0.00209811
0.00224043
0.00237711
0.00251269
0.00265295
0.00280616
0.00295619
0.00310225
0.00324952
0.00341171
)
;
    }
    Table_master
    {
        type            kqRWallFunction;
        value           nonuniform List<scalar> 9(0.00266364 0.00201363 0.00157436 0.00126843 0.00104863 0.000886488 0.000764315 0.000671603 0.000603465);
    }
    Table_slave
    {
        type            kqRWallFunction;
        value           nonuniform List<scalar> 9(0.00345521 0.00285808 0.00243473 0.00210857 0.0018492 0.00163084 0.00143756 0.00125766 0.00107681);
    }
    inlet
    {
        type            turbulentIntensityKineticEnergyInlet;
        intensity       0.05;
        value           uniform 0.0009375;
    }
    outlet
    {
        type            zeroGradient;
    }
}


// ************************************************************************* //
