/*--------------------------------*- C++ -*----------------------------------*\
  =========                 |
  \\      /  F ield         | OpenFOAM: The Open Source CFD Toolbox
   \\    /   O peration     | Website:  https://openfoam.org
    \\  /    A nd           | Version:  6
     \\/     M anipulation  |
\*---------------------------------------------------------------------------*/
FoamFile
{
    version     2.0;
    format      ascii;
    class       volScalarField;
    location    "24799.9999989640455";
    object      alphat;
}
// * * * * * * * * * * * * * * * * * * * * * * * * * * * * * * * * * * * * * //

dimensions      [1 -1 -1 0 0 0 0];

internalField   nonuniform List<scalar> 
778
(
0.00104097
0.00111054
0.00110658
0.00115464
0.00119869
0.0012387
0.00127595
0.00131186
0.001348
0.00138641
0.00142302
0.0014578
0.00149205
0.00152888
0.00156732
0.000736856
0.00105523
0.00106373
0.00103793
0.000994841
0.000937337
0.000880055
0.000827268
0.000779652
0.000736942
0.000698882
0.000664696
0.000633559
0.000604499
0.000576221
0.000546654
0.000522116
0.000472592
0.00152463
0.00300723
0.00263924
0.00304625
0.00334165
0.00365488
0.00396737
0.00425538
0.00448719
0.00462211
0.00470143
0.00466873
0.00443584
0.00385904
0.00281852
0.00171603
0.00163616
0.00156618
0.00131866
0.00224607
0.00311269
0.00362421
0.00364784
0.00287946
0.00246252
0.00217357
0.00195441
0.00178015
0.00163148
0.00149999
0.00137761
0.00125788
0.00115042
0.00105774
0.00119172
0.000599142
0.00193408
0.00419865
0.0031135
0.00445311
0.00497574
0.00541811
0.00581993
0.00617361
0.00647321
0.00670803
0.00693558
0.00717495
0.00739482
0.00752557
0.00743857
0.00681086
0.00498171
0.00192118
0.00166381
0.0035599
0.00496731
0.00563218
0.00512118
0.0013513
0.00117491
0.00103889
0.000932517
0.000847887
0.000779586
0.000723871
0.000678544
0.000643195
0.000707236
0.000832009
0.00131815
0.000681588
0.00232901
0.0056581
0.00297922
0.00500693
0.00578041
0.00619429
0.00649864
0.00672383
0.00689193
0.00702818
0.00722201
0.00754942
0.00802708
0.0086278
0.00923196
0.00953007
0.00894993
0.00667944
0.00191373
0.00443189
0.00659523
0.00769359
0.00796352
0.00679736
0.00153908
0.00139977
0.00129195
0.00120231
0.00112594
0.00105738
0.000992749
0.000928553
0.000859198
0.000802816
0.000832459
0.00142802
0.000750313
0.00271824
0.00749
0.00300552
0.00475977
0.00594881
0.00630146
0.00642935
0.00643414
0.00637019
0.00631367
0.00639489
0.00671294
0.00729641
0.00812285
0.00908196
0.00996635
0.0105283
0.0105233
0.0094455
0.00961208
0.00983374
0.00986495
0.00966381
0.0090443
0.00719675
0.00621595
0.00554425
0.00499823
0.0044631
0.00394493
0.00343804
0.00293188
0.00241195
0.0018525
0.00141331
0.00141323
0.00111758
0.000895173
0.00119249
0.00113566
0.00310115
0.00954008
0.00353798
0.00401386
0.00569964
0.00609067
0.00605891
0.00584046
0.00552848
0.00527134
0.00526572
0.00559872
0.00626312
0.00722083
0.00834272
0.00946473
0.0104204
0.011032
0.0111446
0.0110341
0.0108393
0.0105618
0.0102046
0.00974977
0.00908634
0.00844743
0.00786751
0.00730657
0.00670125
0.00605517
0.0053653
0.00462578
0.00383197
0.00298969
0.00222654
0.00167165
0.00129772
0.00146723
0.00256454
0.00135516
0.0034919
0.0114353
0.00471429
0.00328819
0.00512144
0.00576104
0.00568925
0.00533576
0.00482348
0.00437317
0.00436035
0.00478059
0.00554063
0.00661069
0.00782934
0.009037
0.0100775
0.0108236
0.0111677
0.0111427
0.0108988
0.0105284
0.0101038
0.00967999
0.00927002
0.00889389
0.00854058
0.00816309
0.00770731
0.00715895
0.00650999
0.00575741
0.00490429
0.00397213
0.00305987
0.00220885
0.00162582
0.00146211
0.00261247
0.00160309
0.00382764
0.0128683
0.00642679
0.00313037
0.00405749
0.00510791
0.0052533
0.00496237
0.00435792
0.0037446
0.00388362
0.00443932
0.00528919
0.00639173
0.00765731
0.00892128
0.0100003
0.0107508
0.0110924
0.0110492
0.010734
0.0102682
0.00976699
0.0093223
0.00897943
0.0087345
0.00854345
0.00833539
0.00804577
0.00764051
0.00710379
0.00643262
0.00563375
0.00473069
0.00379006
0.00283447
0.00197334
0.00132998
0.00386261
0.0021235
0.00392889
0.0121734
0.00794983
0.00404588
0.00274962
0.00337144
0.00394517
0.00399246
0.00352498
0.00342546
0.00378117
0.0044345
0.00535368
0.00652347
0.00785042
0.00915338
0.0102281
0.0109196
0.0111627
0.0109963
0.0105385
0.00993809
0.00934236
0.008867
0.00856525
0.00841723
0.00835029
0.00827051
0.00810409
0.00781139
0.00737679
0.00679894
0.00608565
0.00525575
0.00434267
0.00331208
0.00189941
0.00169224
0.00613658
0.00239134
0.00384946
0.00981133
0.0082074
0.00555207
0.00366662
0.00283928
0.00269026
0.00281757
0.00305361
0.00343003
0.00396458
0.00470027
0.00570103
0.00696385
0.00836434
0.00968598
0.0107035
0.0112626
0.0113194
0.0109421
0.0102798
0.00951848
0.00883924
0.00837377
0.00816044
0.00813588
0.00818277
0.00818235
0.00807499
0.00783829
0.00746494
0.00695498
0.00631295
0.00554334
0.0046225
0.00332535
0.00146982
0.00301501
0.00584713
0.00244119
0.00360589
0.00838479
0.00793389
0.00635214
0.00488878
0.00393557
0.00346424
0.00335782
0.0035532
0.00391316
0.00443645
0.00521425
0.00632159
0.00770876
0.00918239
0.010476
0.0113506
0.0116719
0.0114376
0.0107647
0.00985459
0.00894484
0.0082536
0.0079062
0.00786631
0.00798165
0.00809841
0.00810052
0.00798744
0.00775844
0.00740931
0.00693598
0.00633099
0.00556352
0.00451147
0.00294904
0.00159601
0.00324315
0.006528
0.00247588
0.0032833
0.00755974
0.00765248
0.00672292
0.00571945
0.00496369
0.00451848
0.00435868
0.00439914
0.00461724
0.00509897
0.00597015
0.00725379
0.00879363
0.0103002
0.0114625
0.0120543
0.011994
0.0113504
0.0103131
0.00916177
0.00820031
0.00765396
0.00754429
0.00764271
0.00779837
0.00789961
0.00787109
0.00773907
0.0075063
0.00716643
0.00670601
0.00608245
0.00518775
0.00379038
0.00221475
0.00188236
0.00377107
0.00657029
0.00260003
0.00299379
0.00676223
0.00730658
0.00686752
0.00622371
0.00568253
0.00532241
0.00514657
0.00509519
0.0052825
0.00589575
0.00703731
0.00859476
0.0102649
0.0116735
0.0125097
0.0126145
0.0120033
0.0108526
0.00945013
0.00818536
0.00736964
0.00700804
0.00696824
0.00708436
0.00723474
0.00732601
0.00729553
0.00715908
0.0069198
0.0065686
0.00607191
0.00531558
0.00405073
0.00244308
0.00179601
0.0023996
0.00424109
0.0066313
0.00250579
0.00300381
0.0067124
0.00746497
0.00694988
0.00642885
0.00600204
0.00569434
0.00549595
0.00548991
0.00594392
0.0070273
0.00864838
0.0104786
0.0120926
0.013114
0.013323
0.0127017
0.0114017
0.00975705
0.00816522
0.00700625
0.00631851
0.00600187
0.00594529
0.00603885
0.00617448
0.00625751
0.00622273
0.00606679
0.00579888
0.00541205
0.0048584
0.00399377
0.00275164
0.00185613
0.0020049
0.00295453
0.00435875
0.00551631
0.00236262
0.00270984
0.00282048
0.00416497
0.0048967
0.00512424
0.00512959
0.00508222
0.0051797
0.0058111
0.00715762
0.00905623
0.011109
0.0128654
0.0139472
0.0141316
0.0133785
0.0118772
0.0099234
0.008061
0.00659705
0.00561124
0.00505178
0.00480947
0.00475821
0.00479918
0.00485155
0.00484497
0.0047347
0.00450737
0.0041944
0.00381762
0.00337811
0.00283941
0.00223193
0.00190991
0.00226731
0.00324469
0.0044525
0.00529687
0.002281
0.000963528
0.0017373
0.00266713
0.0034151
0.00428428
0.00575271
0.0079137
0.010315
0.0125051
0.0141455
0.015002
0.0149179
0.0138943
0.0120422
0.00984239
0.00775986
0.00610458
0.00499838
0.00439671
0.00411292
0.0039861
0.00392522
0.0038766
0.00379866
0.00366197
0.00346373
0.00322397
0.00298511
0.00277827
0.00261151
0.00247166
0.00235244
0.00233388
0.00264945
0.00350712
0.0048026
0.00597513
0.0024247
0.00178738
0.00247242
0.00360002
0.00561002
0.00832922
0.0110487
0.0131478
0.0146643
0.0155884
0.0158533
0.0153352
0.0139072
0.011784
0.00937152
0.00714931
0.00548086
0.00450011
0.00403013
0.0038234
0.00373169
0.00368592
0.00364869
0.00359386
0.00350491
0.00338187
0.00324436
0.0031206
0.00303308
0.00298776
0.00297796
0.0029963
0.00305074
0.00318374
0.00349835
0.00420826
0.00581567
0.00644067
0.00253478
0.00323741
0.00786974
0.00726784
0.00650533
0.00825242
0.0109774
0.0132673
0.0148093
0.0156238
0.0158284
0.0155233
0.0146565
0.0131642
0.0110874
0.00870166
0.00652452
0.00504204
0.00427983
0.00395355
0.00383212
0.00380514
0.00382056
0.00384595
0.00385762
0.0038421
0.00379981
0.00374406
0.00369319
0.00366073
0.00365195
0.00366929
0.00371463
0.00379663
0.00393786
0.0041824
0.00461063
0.00539482
0.00727549
0.00736434
0.00261745
0.00309492
0.00598305
0.00773103
0.00989562
0.0109812
0.0120921
0.0127326
0.0128805
0.0126305
0.0120495
0.0111598
0.00996031
0.00848979
0.00690895
0.00549297
0.00447686
0.00389335
0.00360547
0.00349349
0.00349024
0.00355514
0.00365542
0.00376131
0.0038492
0.00390701
0.0039368
0.00395089
0.00396314
0.00398174
0.00400875
0.00404698
0.0041067
0.00421063
0.00439269
0.0046909
0.00514508
0.00581225
0.00711969
0.00773707
0.00267926
0.0028952
0.00248113
0.00246882
0.0025408
0.00260016
0.0025225
0.00237287
0.00219964
0.0020269
0.00186238
0.00170642
0.00155969
0.00142864
0.00132592
0.00126352
0.00123629
0.00123105
0.00123937
0.00125547
0.00127551
0.00129692
0.00131809
0.00133825
0.00135737
0.00137609
0.00139554
0.00141714
0.00144245
0.00147325
0.00151207
0.00156259
0.00162972
0.0017185
0.00183173
0.00196829
0.00212412
0.00229505
0.00247762
0.00265961
0.00248752
)
;

boundaryField
{
    floor
    {
        type            compressible::alphatWallFunction;
        Prt             0.85;
        value           nonuniform List<scalar> 
36
(
0.000219882
0.000104488
0.000149916
0.000151104
0.000147493
0.000141438
0.000133309
0.000125153
0.000117582
0.000110703
0.000104491
9.89183e-05
9.38819e-05
8.92671e-05
8.49354e-05
8.06956e-05
7.62351e-05
7.25108e-05
6.49271e-05
6.49263e-05
8.41349e-05
9.63749e-05
0.00010644
0.000127312
0.000168982
0.000161124
0.00021988
0.000239675
0.000229067
0.000219725
0.000104486
0.000219723
0.000186289
0.000266672
0.000232736
0.000265699
)
;
    }
    ceiling
    {
        type            compressible::alphatWallFunction;
        Prt             0.85;
        value           nonuniform List<scalar> 
43
(
0.000391237
0.000338961
0.000337399
0.000346561
0.000354102
0.000344277
0.000325228
0.000303002
0.000280649
0.000259167
0.000238612
0.000219088
0.000201476
0.000187533
0.000178988
0.00017524
0.000174509
0.000175645
0.000177854
0.000180606
0.000183545
0.000186449
0.00018921
0.000191824
0.000194375
0.000197018
0.000199942
0.000203354
0.00020749
0.000212675
0.000219387
0.000228263
0.000239951
0.000254805
0.000272648
0.000292906
0.000314987
0.00033839
0.000361535
0.000339673
0.000368265
0.000382172
0.000248615
)
;
    }
    sWall
    {
        type            compressible::alphatWallFunction;
        Prt             0.85;
        value           nonuniform List<scalar> 9(0.000507603 0.00047789 0.000438222 0.000402286 0.000403526 0.00036669 0.000431911 0.000414293 0.000389486);
    }
    nWall
    {
        type            compressible::alphatWallFunction;
        Prt             0.85;
        value           nonuniform List<scalar> 
14
(
0.000160676
0.000190797
0.000224166
0.000333309
0.00033774
0.000353294
0.000340836
0.000322878
0.000312744
0.00033158
0.000345199
0.000355615
0.000363291
0.00033898
)
;
    }
    sideWalls
    {
        type            empty;
    }
    glass1
    {
        type            compressible::alphatWallFunction;
        Prt             0.85;
        value           nonuniform List<scalar> 9(0.000143926 0.00020913 0.000262684 0.000313288 0.000362357 0.000409976 0.000457983 0.000498841 0.000511211);
    }
    glass2
    {
        type            compressible::alphatWallFunction;
        Prt             0.85;
        value           nonuniform List<scalar> 2(0.00029026 0.000324537);
    }
    sun
    {
        type            compressible::alphatWallFunction;
        Prt             0.85;
        value           nonuniform List<scalar> 
14
(
0.00014796
0.000157646
0.000157093
0.000163765
0.000169852
0.000175358
0.000180466
0.000185375
0.0001903
0.000195518
0.000200476
0.000205172
0.000209785
0.000214733
)
;
    }
    Table_master
    {
        type            compressible::alphatWallFunction;
        Prt             0.85;
        value           nonuniform List<scalar> 9(0.000191003 0.000166816 0.000147883 0.000132874 0.00012079 0.000110933 0.000102816 9.61563e-05 9.09253e-05);
    }
    Table_slave
    {
        type            compressible::alphatWallFunction;
        Prt             0.85;
        value           nonuniform List<scalar> 9(0.000216369 0.00019759 0.000182912 0.000170603 0.000160035 0.000150476 0.000141398 0.000132314 0.000122415);
    }
    inlet
    {
        type            fixedValue;
        value           uniform 1.94e-05;
    }
    outlet
    {
        type            zeroGradient;
    }
}


// ************************************************************************* //
