/*--------------------------------*- C++ -*----------------------------------*\
  =========                 |
  \\      /  F ield         | OpenFOAM: The Open Source CFD Toolbox
   \\    /   O peration     | Website:  https://openfoam.org
    \\  /    A nd           | Version:  6
     \\/     M anipulation  |
\*---------------------------------------------------------------------------*/
FoamFile
{
    version     2.0;
    format      ascii;
    class       volVectorField;
    location    "24799.9999989640455";
    object      U;
}
// * * * * * * * * * * * * * * * * * * * * * * * * * * * * * * * * * * * * * //

dimensions      [0 1 -1 0 0 0 0];

internalField   nonuniform List<vector> 
778
(
(0.0656022 0.0794075 0)
(-0.155173 0.015766 0)
(-0.164301 0.0146264 0)
(-0.192421 0.0122759 0)
(-0.216859 0.00872419 0)
(-0.236919 0.0047411 0)
(-0.252043 0.000411785 0)
(-0.261806 -0.00437579 0)
(-0.265696 -0.00981972 0)
(-0.26271 -0.0162001 0)
(-0.250896 -0.0242726 0)
(-0.22619 -0.0348883 0)
(-0.186069 -0.0504041 0)
(-0.144147 -0.0751659 0)
(-0.15005 -0.108545 0)
(0.0546644 0.0354301 0)
(0.0157813 -0.0268576 0)
(0.0449589 -0.0232464 0)
(0.0693407 -0.0161434 0)
(0.0843766 -0.0103406 0)
(0.0915684 -0.00641244 0)
(0.0944007 -0.00434022 0)
(0.0954433 -0.00331766 0)
(0.0959056 -0.00272889 0)
(0.0960793 -0.00231437 0)
(0.0959531 -0.00194934 0)
(0.095424 -0.00150928 0)
(0.094165 -0.000756534 0)
(0.0913185 0.000846075 0)
(0.085116 0.0040673 0)
(0.0735807 0.00776856 0)
(0.0599414 0.0116021 0)
(-0.00797523 0.0299826 0)
(0.258404 0.167391 0)
(-0.161232 0.0483916 0)
(-0.141602 0.0459837 0)
(-0.174009 0.0416184 0)
(-0.199375 0.0356695 0)
(-0.220096 0.0291272 0)
(-0.236124 0.0220515 0)
(-0.247372 0.0142167 0)
(-0.253539 0.00528048 0)
(-0.253845 -0.00517141 0)
(-0.24768 -0.0171004 0)
(-0.233967 -0.030863 0)
(-0.214055 -0.0480799 0)
(-0.197476 -0.0699538 0)
(-0.193954 -0.0826322 0)
(-0.166342 -0.0425608 0)
(-0.105301 -0.0363778 0)
(-0.0983303 -0.0444556 0)
(0.109352 -0.0421049 0)
(0.0644972 -0.0411512 0)
(0.0719308 -0.0322397 0)
(0.0858924 -0.0206805 0)
(0.0937704 -0.0104342 0)
(0.0959876 -0.00363025 0)
(0.0957418 -0.000206289 0)
(0.0953549 0.00123656 0)
(0.0953214 0.00188979 0)
(0.0954043 0.00226893 0)
(0.0954126 0.00259333 0)
(0.0953128 0.00313485 0)
(0.0950216 0.00441356 0)
(0.093764 0.00772637 0)
(0.0881643 0.0167584 0)
(0.0744021 0.0253308 0)
(0.0630933 0.0329241 0)
(-0.0520975 0.0635762 0)
(0.429988 0.253951 0)
(-0.194231 0.084758 0)
(-0.112775 0.078437 0)
(-0.148242 0.0669606 0)
(-0.170676 0.0555019 0)
(-0.18877 0.0437236 0)
(-0.202606 0.0313334 0)
(-0.212294 0.0179891 0)
(-0.217638 0.00337437 0)
(-0.217986 -0.0126597 0)
(-0.21272 -0.0303513 0)
(-0.201606 -0.0499302 0)
(-0.185961 -0.0715805 0)
(-0.169422 -0.0932121 0)
(-0.151051 -0.104554 0)
(-0.120218 -0.0931295 0)
(-0.0795397 -0.0949189 0)
(-0.0714942 -0.107543 0)
(0.0921095 -0.0882066 0)
(0.0625699 -0.0657471 0)
(0.0743737 -0.0460891 0)
(0.0880007 -0.0291898 0)
(0.0948285 -0.0148425 0)
(0.0919058 -0.0119558 0)
(0.0876731 -0.00793076 0)
(0.0853068 -0.00578721 0)
(0.0846045 -0.00457011 0)
(0.0845727 -0.0038047 0)
(0.0848275 -0.00322809 0)
(0.0854826 -0.00259882 0)
(0.0872466 -0.00143948 0)
(0.0919328 0.00291865 0)
(0.0900786 0.0251116 0)
(0.0732454 0.0423559 0)
(0.0700478 0.0574093 0)
(-0.0902926 0.100873 0)
(0.578562 0.325835 0)
(-0.240104 0.121807 0)
(-0.0808271 0.109227 0)
(-0.121569 0.0898597 0)
(-0.139003 0.0740727 0)
(-0.153065 0.058633 0)
(-0.163825 0.0427409 0)
(-0.171418 0.0257865 0)
(-0.175624 0.00716543 0)
(-0.175681 -0.0135692 0)
(-0.170983 -0.0365063 0)
(-0.161406 -0.061482 0)
(-0.147533 -0.0873821 0)
(-0.130553 -0.110293 0)
(-0.109593 -0.123182 0)
(-0.0821171 -0.124515 0)
(-0.052505 -0.126334 0)
(-0.0333616 -0.123129 0)
(0.0163804 -0.0567927 0)
(0.0608395 -0.0930524 0)
(0.0684675 -0.0791732 0)
(0.0790783 -0.0587779 0)
(0.0915697 -0.0395172 0)
(0.10291 -0.0208518 0)
(0.115653 -0.0131375 0)
(0.126789 -0.00877535 0)
(0.13237 -0.00558786 0)
(0.133351 -0.00309633 0)
(0.130837 -0.000880667 0)
(0.125387 0.00128708 0)
(0.116867 0.00367214 0)
(0.104503 0.00673494 0)
(0.0852219 0.0111753 0)
(0.0713322 0.0368771 0)
(0.0599964 0.0605844 0)
(0.0761827 0.0832864 0)
(-0.11836 0.13699 0)
(0.705752 0.383672 0)
(-0.287685 0.156998 0)
(-0.0476859 0.133785 0)
(-0.0962835 0.106926 0)
(-0.107734 0.087603 0)
(-0.116769 0.0691763 0)
(-0.123562 0.0504405 0)
(-0.128224 0.0305675 0)
(-0.130582 0.00868956 0)
(-0.12977 -0.0158643 0)
(-0.125261 -0.0431219 0)
(-0.116626 -0.0727163 0)
(-0.103893 -0.102835 0)
(-0.0874097 -0.129073 0)
(-0.0674468 -0.145755 0)
(-0.0440969 -0.152225 0)
(-0.0202307 -0.152326 0)
(0.000313984 -0.143677 0)
(0.0308346 -0.114976 0)
(0.0569872 -0.109344 0)
(0.0705445 -0.092404 0)
(0.0806671 -0.071206 0)
(0.0907204 -0.0507354 0)
(0.100273 -0.0326958 0)
(0.109375 -0.0193391 0)
(0.11639 -0.00998544 0)
(0.119808 -0.00330827 0)
(0.120008 0.00193151 0)
(0.117605 0.0064679 0)
(0.112964 0.0108182 0)
(0.106106 0.0154965 0)
(0.0969569 0.0212057 0)
(0.0850027 0.0292419 0)
(0.0733928 0.0472966 0)
(0.062785 0.0713589 0)
(0.0943939 0.0993909 0)
(0.0160762 0.138148 0)
(0.0955698 0.183045 0)
(0.141236 0.144081 0)
(-0.219846 0.202184 0)
(0.810472 0.431963 0)
(-0.331331 0.190663 0)
(-0.0172995 0.150249 0)
(-0.0733564 0.11753 0)
(-0.0785797 0.0955244 0)
(-0.0822054 0.074955 0)
(-0.084466 0.0543431 0)
(-0.0855101 0.0327056 0)
(-0.0852603 0.00883016 0)
(-0.0825876 -0.0184538 0)
(-0.0774155 -0.0490713 0)
(-0.068776 -0.0825362 0)
(-0.0567593 -0.116517 0)
(-0.0416724 -0.146298 0)
(-0.0246487 -0.165977 0)
(-0.00623493 -0.174463 0)
(0.012164 -0.172701 0)
(0.0280789 -0.160954 0)
(0.0462285 -0.139277 0)
(0.0626518 -0.122302 0)
(0.0732922 -0.102442 0)
(0.080944 -0.0803744 0)
(0.0876811 -0.0590195 0)
(0.093846 -0.0401449 0)
(0.0991648 -0.0249877 0)
(0.102845 -0.0136589 0)
(0.104448 -0.00499707 0)
(0.104026 0.00216626 0)
(0.10189 0.00861163 0)
(0.0982826 0.0148644 0)
(0.0933539 0.0214591 0)
(0.0873219 0.0290355 0)
(0.0804284 0.0385096 0)
(0.0745939 0.0530261 0)
(0.0691588 0.0730996 0)
(0.0911046 0.0987909 0)
(0.0725672 0.107254 0)
(0.0892106 0.0470512 0)
(0.146586 -0.0377106 0)
(-0.328716 0.108107 0)
(0.87996 0.47467 0)
(-0.36866 0.220941 0)
(0.00374531 0.155554 0)
(-0.0526467 0.121579 0)
(-0.0521906 0.0978691 0)
(-0.0510161 0.0758393 0)
(-0.0490211 0.0540547 0)
(-0.0465155 0.0315325 0)
(-0.0433427 0.0067542 0)
(-0.0373948 -0.022333 0)
(-0.0303233 -0.0554122 0)
(-0.0205292 -0.091983 0)
(-0.0086932 -0.128926 0)
(0.00456388 -0.161259 0)
(0.0176776 -0.181886 0)
(0.0305066 -0.190195 0)
(0.0423376 -0.187181 0)
(0.0526442 -0.17435 0)
(0.0625938 -0.153984 0)
(0.0711351 -0.13232 0)
(0.076619 -0.109291 0)
(0.0800387 -0.0857753 0)
(0.0825992 -0.0635881 0)
(0.0848026 -0.04409 0)
(0.0866069 -0.0280099 0)
(0.0876807 -0.0152519 0)
(0.0878061 -0.00503139 0)
(0.0868373 0.00357829 0)
(0.0849659 0.0112675 0)
(0.0823352 0.0185703 0)
(0.0791128 0.0260011 0)
(0.0755623 0.0340782 0)
(0.0720579 0.043373 0)
(0.069931 0.0551844 0)
(0.0684727 0.0698689 0)
(0.0811372 0.0890406 0)
(0.0835914 0.0920081 0)
(0.0885338 0.053348 0)
(0.181803 0.0240103 0)
(-0.282937 0.155427 0)
(0.928019 0.517123 0)
(-0.383188 0.234138 0)
(0.0169319 0.132963 0)
(-0.0273056 0.116665 0)
(-0.0265278 0.0949434 0)
(-0.0227273 0.0724541 0)
(-0.0176282 0.0501259 0)
(-0.0123687 0.0272625 0)
(-0.00544187 0.001872 0)
(0.00453178 -0.030764 0)
(0.014242 -0.0653726 0)
(0.0255508 -0.103392 0)
(0.0372259 -0.140922 0)
(0.0479535 -0.172193 0)
(0.0571019 -0.192366 0)
(0.0646397 -0.199815 0)
(0.0703876 -0.195351 0)
(0.0743447 -0.181114 0)
(0.0770239 -0.159997 0)
(0.0783466 -0.135978 0)
(0.0779383 -0.110945 0)
(0.0763803 -0.0864033 0)
(0.0745059 -0.0638292 0)
(0.0728421 -0.0442312 0)
(0.0715299 -0.0279956 0)
(0.0704406 -0.014843 0)
(0.069387 -0.00407078 0)
(0.0680824 0.00510716 0)
(0.0666458 0.0132827 0)
(0.0650479 0.0209581 0)
(0.0633641 0.0285818 0)
(0.0617667 0.0365366 0)
(0.0605252 0.0451495 0)
(0.0604429 0.0549276 0)
(0.0612291 0.0658411 0)
(0.0694004 0.0793656 0)
(0.0779845 0.0823566 0)
(0.0765994 0.059748 0)
(0.240521 0.0505827 0)
(-0.548784 0.231418 0)
(1.01137 0.50677 0)
(-0.137221 0.296305 0)
(0.0411005 0.161488 0)
(0.0406196 0.122074 0)
(0.0131045 0.0919827 0)
(0.00868659 0.0653877 0)
(0.0141 0.041416 0)
(0.0207099 0.0169981 0)
(0.0324935 -0.0110163 0)
(0.0439427 -0.0421664 0)
(0.0558058 -0.0769589 0)
(0.0680938 -0.114721 0)
(0.0792657 -0.151208 0)
(0.0878173 -0.180672 0)
(0.0930919 -0.198672 0)
(0.0951879 -0.20379 0)
(0.0945051 -0.197083 0)
(0.0915876 -0.180983 0)
(0.0871128 -0.158543 0)
(0.0815351 -0.133078 0)
(0.0751525 -0.107018 0)
(0.0685667 -0.0821845 0)
(0.0625019 -0.0599387 0)
(0.0574807 -0.041016 0)
(0.0537007 -0.0255158 0)
(0.0510718 -0.0129485 0)
(0.0493376 -0.00253489 0)
(0.0481039 0.00642992 0)
(0.0473539 0.0144606 0)
(0.0468603 0.0220187 0)
(0.0465726 0.0294707 0)
(0.0465337 0.0370831 0)
(0.0468498 0.0450373 0)
(0.0478873 0.0535179 0)
(0.0494127 0.0623444 0)
(0.0543116 0.0719863 0)
(0.0609802 0.072168 0)
(0.0501266 0.0423874 0)
(0.290579 0.068783 0)
(-0.782994 0.304192 0)
(0.779366 0.395635 0)
(0.000814979 0.319438 0)
(0.0933866 0.21887 0)
(0.110615 0.155129 0)
(0.0771794 0.106794 0)
(0.0598045 0.0675352 0)
(0.0582224 0.0357665 0)
(0.062381 0.00642348 0)
(0.0737888 -0.0234301 0)
(0.0853472 -0.055062 0)
(0.0975388 -0.0898177 0)
(0.109418 -0.126381 0)
(0.118825 -0.160206 0)
(0.123978 -0.185931 0)
(0.124262 -0.199975 0)
(0.120094 -0.201508 0)
(0.112417 -0.191909 0)
(0.102298 -0.173744 0)
(0.0907804 -0.150051 0)
(0.0787043 -0.123865 0)
(0.0667614 -0.0977186 0)
(0.0556815 -0.0735255 0)
(0.0461912 -0.0525474 0)
(0.0387669 -0.0352406 0)
(0.0335252 -0.0214144 0)
(0.0302507 -0.0103007 0)
(0.028501 -0.000983331 0)
(0.027819 0.00718148 0)
(0.0279391 0.0146562 0)
(0.0285269 0.0218307 0)
(0.0294525 0.0289687 0)
(0.0306556 0.0362482 0)
(0.0320819 0.0438035 0)
(0.0337004 0.0517902 0)
(0.0347745 0.0603046 0)
(0.0349397 0.0701282 0)
(0.0222419 0.0771622 0)
(0.0102976 0.100346 0)
(0.0501472 0.168814 0)
(-0.661421 0.286059 0)
(0.617282 0.220733 0)
(0.00461247 0.298054 0)
(0.113017 0.241494 0)
(0.1483 0.177494 0)
(0.130872 0.123451 0)
(0.117854 0.0777953 0)
(0.114988 0.0388727 0)
(0.117144 0.00339374 0)
(0.12349 -0.0307152 0)
(0.131702 -0.0650248 0)
(0.141385 -0.100572 0)
(0.150281 -0.135519 0)
(0.155446 -0.165456 0)
(0.154943 -0.186016 0)
(0.148449 -0.194881 0)
(0.136853 -0.19208 0)
(0.121621 -0.179378 0)
(0.104252 -0.159363 0)
(0.0861181 -0.134956 0)
(0.0683204 -0.108943 0)
(0.0518024 -0.0837999 0)
(0.0374238 -0.0613861 0)
(0.0259306 -0.0428184 0)
(0.0176162 -0.0281695 0)
(0.0123062 -0.016882 0)
(0.00939615 -0.0078194 0)
(0.00819024 -3.34684e-06 0)
(0.00830752 0.00710324 0)
(0.00923677 0.0138744 0)
(0.0107168 0.0205756 0)
(0.0126107 0.0273634 0)
(0.0148158 0.0343615 0)
(0.0172093 0.0417262 0)
(0.019663 0.04976 0)
(0.0217099 0.0591665 0)
(0.0229732 0.072326 0)
(0.00876857 0.0937312 0)
(-0.0075744 0.139894 0)
(0.161373 0.181828 0)
(-0.559645 0.183563 0)
(0.570778 0.118405 0)
(-0.0203867 0.258561 0)
(0.113697 0.229824 0)
(0.165056 0.175983 0)
(0.166739 0.126116 0)
(0.164413 0.0810578 0)
(0.165399 0.0399628 0)
(0.168292 0.00164229 0)
(0.172229 -0.0353701 0)
(0.177781 -0.0719148 0)
(0.183944 -0.107648 0)
(0.187649 -0.139789 0)
(0.185873 -0.164426 0)
(0.177229 -0.178709 0)
(0.162159 -0.181831 0)
(0.142199 -0.174694 0)
(0.119287 -0.159352 0)
(0.0951774 -0.138259 0)
(0.0714655 -0.114146 0)
(0.0493623 -0.0894937 0)
(0.0300266 -0.066693 0)
(0.0144155 -0.0474628 0)
(0.00315432 -0.0326158 0)
(-0.00412804 -0.0214139 0)
(-0.00807937 -0.0131428 0)
(-0.0100037 -0.0061863 0)
(-0.0105037 0.000161105 0)
(-0.00984121 0.0062412 0)
(-0.0084112 0.0122922 0)
(-0.00635605 0.0184603 0)
(-0.00380367 0.0248353 0)
(-0.000875159 0.0315251 0)
(0.00233217 0.0387635 0)
(0.00573886 0.04678 0)
(0.00941198 0.0566624 0)
(0.0128633 0.0728239 0)
(0.00289633 0.10289 0)
(-0.0190236 0.147919 0)
(0.21532 0.185605 0)
(-0.465058 0.175134 0)
(0.628377 0.0537518 0)
(0.00898804 0.197274 0)
(0.113769 0.196864 0)
(0.175118 0.157829 0)
(0.19141 0.1176 0)
(0.198094 0.0772244 0)
(0.203427 0.0372722 0)
(0.208605 -0.00146996 0)
(0.213063 -0.0396073 0)
(0.217335 -0.0765095 0)
(0.219136 -0.110014 0)
(0.215306 -0.136933 0)
(0.203945 -0.154619 0)
(0.185137 -0.162049 0)
(0.1605 -0.159776 0)
(0.132204 -0.149217 0)
(0.102502 -0.132467 0)
(0.0731065 -0.111632 0)
(0.0458007 -0.0892474 0)
(0.0217169 -0.0674606 0)
(0.00241459 -0.0486246 0)
(-0.0113174 -0.0342273 0)
(-0.0195091 -0.0244302 0)
(-0.0243059 -0.0170456 0)
(-0.0268774 -0.0109609 0)
(-0.0280299 -0.0054554 0)
(-0.0280781 -0.000200313 0)
(-0.0271482 0.00501106 0)
(-0.0254442 0.0103494 0)
(-0.0230502 0.0159398 0)
(-0.0201168 0.0218739 0)
(-0.0168396 0.0282648 0)
(-0.0134555 0.0353104 0)
(-0.0101181 0.0433397 0)
(-0.00714797 0.0540378 0)
(-0.00827491 0.0748492 0)
(-0.0199999 0.105339 0)
(-0.0300433 0.128561 0)
(0.196337 0.177337 0)
(-0.492109 0.216634 0)
(0.473016 0.0748612 0)
(-0.132281 0.137488 0)
(0.0942314 0.133125 0)
(0.172744 0.116622 0)
(0.203896 0.0952031 0)
(0.218213 0.0643242 0)
(0.228189 0.028398 0)
(0.237208 -0.0088802 0)
(0.243525 -0.0452091 0)
(0.244985 -0.0782049 0)
(0.238976 -0.105183 0)
(0.224133 -0.124039 0)
(0.200969 -0.133874 0)
(0.171402 -0.135114 0)
(0.138028 -0.129018 0)
(0.103162 -0.116872 0)
(0.0691448 -0.10056 0)
(0.037172 -0.0817069 0)
(0.00964208 -0.0628307 0)
(-0.0129392 -0.0456898 0)
(-0.0271333 -0.0339743 0)
(-0.0359525 -0.0257167 0)
(-0.0411227 -0.0195134 0)
(-0.0441899 -0.0142756 0)
(-0.0458764 -0.00957852 0)
(-0.0465314 -0.00514877 0)
(-0.0462746 -0.000819827 0)
(-0.0451196 0.00356133 0)
(-0.0431973 0.00816169 0)
(-0.0405466 0.0131578 0)
(-0.0373679 0.0187119 0)
(-0.0339927 0.0250341 0)
(-0.0309905 0.0324907 0)
(-0.0290807 0.0419431 0)
(-0.0294063 0.0566466 0)
(-0.0376397 0.0834558 0)
(-0.0583337 0.116512 0)
(-0.0564941 0.137197 0)
(0.00966954 0.176927 0)
(-0.535443 0.210071 0)
(0.724214 0.134546 0)
(0.0818708 0.115273 0)
(0.149776 0.0990666 0)
(0.222458 0.0802415 0)
(0.244175 0.0697156 0)
(0.249003 0.0475775 0)
(0.255264 0.0176004 0)
(0.261312 -0.0145497 0)
(0.260271 -0.0445448 0)
(0.249723 -0.0694464 0)
(0.229417 -0.0875091 0)
(0.200919 -0.0982165 0)
(0.16661 -0.101831 0)
(0.129066 -0.0993526 0)
(0.0908352 -0.0920569 0)
(0.0534081 -0.0806428 0)
(0.0195684 -0.0667868 0)
(-0.0111139 -0.0516024 0)
(-0.0327786 -0.0396457 0)
(-0.0471945 -0.0310537 0)
(-0.055913 -0.0251637 0)
(-0.0612753 -0.0204795 0)
(-0.0646351 -0.0163432 0)
(-0.0667514 -0.0124434 0)
(-0.0679188 -0.00874384 0)
(-0.0682384 -0.0052005 0)
(-0.0677282 -0.0017168 0)
(-0.0663156 0.00186138 0)
(-0.0641802 0.00571954 0)
(-0.0612573 0.0101081 0)
(-0.0577344 0.0153215 0)
(-0.0539557 0.0217608 0)
(-0.0506015 0.0301479 0)
(-0.0483868 0.0420305 0)
(-0.0470635 0.0609588 0)
(-0.0502587 0.0925198 0)
(-0.0661743 0.135073 0)
(-0.0563991 0.168445 0)
(-0.0391345 0.1626 0)
(-0.575331 0.0799118 0)
(0.192268 0.0878355 0)
(0.226002 0.0994896 0)
(0.246747 0.0699133 0)
(0.242791 0.0397859 0)
(0.239887 0.0123169 0)
(0.234858 -0.0125736 0)
(0.220112 -0.0330363 0)
(0.196343 -0.0482427 0)
(0.165862 -0.0581396 0)
(0.131131 -0.063162 0)
(0.0939685 -0.0635932 0)
(0.0564402 -0.0602155 0)
(0.0205823 -0.053946 0)
(-0.0141696 -0.0449928 0)
(-0.0406833 -0.0366209 0)
(-0.0603474 -0.0298463 0)
(-0.0732885 -0.0254009 0)
(-0.081535 -0.0222144 0)
(-0.0868802 -0.0195189 0)
(-0.0906167 -0.0167158 0)
(-0.0933126 -0.0137896 0)
(-0.0951875 -0.0108715 0)
(-0.0963029 -0.00807683 0)
(-0.0966673 -0.00541711 0)
(-0.096254 -0.00279945 0)
(-0.0949397 -4.13817e-05 0)
(-0.0928505 0.00305447 0)
(-0.0898101 0.00673949 0)
(-0.0857529 0.0114132 0)
(-0.0807222 0.0176185 0)
(-0.0749948 0.0262532 0)
(-0.0687298 0.038963 0)
(-0.06047 0.0587137 0)
(-0.0489937 0.0898862 0)
(-0.0419471 0.135556 0)
(-0.0269444 0.188536 0)
(0.112432 0.180319 0)
(-0.463892 0.0316092 0)
(0.451584 0.209116 0)
(0.20682 0.178382 0)
(0.153041 0.118612 0)
(0.139841 0.0640609 0)
(0.128448 0.026089 0)
(0.114289 0.00209244 0)
(0.0989637 -0.0125953 0)
(0.0778034 -0.0216829 0)
(0.0528488 -0.0272696 0)
(0.0253081 -0.0297759 0)
(-0.0050467 -0.0291602 0)
(-0.034318 -0.0265781 0)
(-0.0600247 -0.0234394 0)
(-0.081024 -0.020872 0)
(-0.0960153 -0.0197529 0)
(-0.106097 -0.019271 0)
(-0.112795 -0.0187997 0)
(-0.11775 -0.0175441 0)
(-0.12184 -0.0154246 0)
(-0.125365 -0.0126885 0)
(-0.12833 -0.00971616 0)
(-0.130668 -0.00684613 0)
(-0.132327 -0.00430919 0)
(-0.133287 -0.00219841 0)
(-0.133518 -0.000471912 0)
(-0.13292 0.00102946 0)
(-0.1312 0.00253568 0)
(-0.128232 0.00434474 0)
(-0.123556 0.00689845 0)
(-0.116783 0.0108534 0)
(-0.107656 0.0172718 0)
(-0.0957943 0.0278107 0)
(-0.0795906 0.0448009 0)
(-0.0562419 0.0708503 0)
(-0.0282216 0.108111 0)
(-0.00289597 0.158374 0)
(0.168602 0.157151 0)
(-0.385793 0.0877582 0)
(0.361292 -0.414187 0)
(-0.345331 -0.512085 0)
(-0.218242 -0.0283517 0)
(-0.0927082 0.110665 0)
(-0.0534459 0.092596 0)
(-0.031102 0.0548171 0)
(-0.026277 0.028824 0)
(-0.0313337 0.0122212 0)
(-0.0403954 0.00155523 0)
(-0.0511483 -0.00537353 0)
(-0.0650727 -0.00959315 0)
(-0.0807814 -0.0119614 0)
(-0.0970937 -0.0137076 0)
(-0.112511 -0.0160536 0)
(-0.125771 -0.018928 0)
(-0.135566 -0.0219711 0)
(-0.141814 -0.0247333 0)
(-0.145978 -0.026597 0)
(-0.149541 -0.0275695 0)
(-0.15327 -0.0278232 0)
(-0.157267 -0.0275706 0)
(-0.161351 -0.0269643 0)
(-0.165272 -0.0260868 0)
(-0.168781 -0.0249445 0)
(-0.171657 -0.0235041 0)
(-0.173731 -0.0217487 0)
(-0.174912 -0.0197106 0)
(-0.175136 -0.0174463 0)
(-0.17426 -0.0149559 0)
(-0.171918 -0.0121358 0)
(-0.16752 -0.00875978 0)
(-0.160195 -0.00428971 0)
(-0.149016 0.00224421 0)
(-0.133089 0.0122284 0)
(-0.111217 0.0267083 0)
(-0.0812655 0.0456466 0)
(-0.0429348 0.0689761 0)
(-0.00247174 0.104244 0)
(0.188709 0.128307 0)
(-0.399477 0.146108 0)
(0.123933 -0.184951 0)
(-0.387455 -0.297369 0)
(-0.342789 -0.0967581 0)
(-0.264604 0.0510754 0)
(-0.210942 0.0832794 0)
(-0.178797 0.0744811 0)
(-0.162468 0.0611259 0)
(-0.1564 0.0512791 0)
(-0.156404 0.046203 0)
(-0.159642 0.0456478 0)
(-0.164218 0.0487513 0)
(-0.168547 0.0542567 0)
(-0.171758 0.0606678 0)
(-0.173683 0.0658053 0)
(-0.174843 0.0667366 0)
(-0.176208 0.0633684 0)
(-0.178454 0.0592866 0)
(-0.181761 0.0569842 0)
(-0.185807 0.0568824 0)
(-0.190129 0.0583366 0)
(-0.194311 0.0605282 0)
(-0.198068 0.0627429 0)
(-0.201247 0.0643832 0)
(-0.203788 0.0650018 0)
(-0.205674 0.0643788 0)
(-0.206892 0.0625568 0)
(-0.207423 0.0597442 0)
(-0.207246 0.0561 0)
(-0.206297 0.0515423 0)
(-0.204375 0.0457454 0)
(-0.201062 0.0384172 0)
(-0.195725 0.0295614 0)
(-0.187621 0.019754 0)
(-0.175999 0.010046 0)
(-0.159826 0.00120792 0)
(-0.137492 -0.00756168 0)
(-0.105315 -0.016251 0)
(-0.0559021 -0.0121828 0)
(0.190536 0.0685449 0)
(-0.456849 0.203241 0)
(1.14746 -0.010805 0)
(-0.295419 -0.322227 0)
(-0.352684 -0.232553 0)
(-0.352256 -0.148251 0)
(-0.3287 -0.106985 0)
(-0.297106 -0.0983251 0)
(-0.269735 -0.100335 0)
(-0.249623 -0.10572 0)
(-0.23575 -0.112887 0)
(-0.226053 -0.121901 0)
(-0.218776 -0.13334 0)
(-0.212902 -0.147599 0)
(-0.208165 -0.163871 0)
(-0.20491 -0.179362 0)
(-0.203988 -0.189683 0)
(-0.206329 -0.193402 0)
(-0.211791 -0.192739 0)
(-0.219023 -0.189721 0)
(-0.226537 -0.185973 0)
(-0.233305 -0.182364 0)
(-0.238808 -0.179162 0)
(-0.242892 -0.176288 0)
(-0.245656 -0.173513 0)
(-0.247382 -0.170568 0)
(-0.248466 -0.167215 0)
(-0.24931 -0.163272 0)
(-0.250231 -0.158642 0)
(-0.251465 -0.153306 0)
(-0.253312 -0.147285 0)
(-0.256277 -0.140554 0)
(-0.261042 -0.132849 0)
(-0.268241 -0.123389 0)
(-0.278158 -0.110616 0)
(-0.290494 -0.0923239 0)
(-0.303965 -0.0665718 0)
(-0.31455 -0.0329986 0)
(-0.31156 0.007598 0)
(-0.282024 0.0575566 0)
(-0.258745 0.122797 0)
(-0.599871 0.207811 0)
)
;

boundaryField
{
    floor
    {
        type            noSlip;
    }
    ceiling
    {
        type            noSlip;
    }
    sWall
    {
        type            noSlip;
    }
    nWall
    {
        type            noSlip;
    }
    sideWalls
    {
        type            empty;
    }
    glass1
    {
        type            noSlip;
    }
    glass2
    {
        type            noSlip;
    }
    sun
    {
        type            noSlip;
    }
    Table_master
    {
        type            noSlip;
    }
    Table_slave
    {
        type            noSlip;
    }
    inlet
    {
        type            fixedValue;
        value           uniform (0.5 0 0);
    }
    outlet
    {
        type            zeroGradient;
    }
}


// ************************************************************************* //
