/*--------------------------------*- C++ -*----------------------------------*\
  =========                 |
  \\      /  F ield         | OpenFOAM: The Open Source CFD Toolbox
   \\    /   O peration     | Website:  https://openfoam.org
    \\  /    A nd           | Version:  6
     \\/     M anipulation  |
\*---------------------------------------------------------------------------*/
FoamFile
{
    version     2.0;
    format      ascii;
    class       surfaceScalarField;
    location    "8700";
    object      phi;
}
// * * * * * * * * * * * * * * * * * * * * * * * * * * * * * * * * * * * * * //

dimensions      [1 0 -1 0 0 0 0];

internalField   nonuniform List<scalar> 
1256
(
-0.00302312
0.0030856
-0.0039751
0.000951982
-0.00474256
0.000767461
-0.0053736
0.000631045
-0.00584803
0.000474432
-0.00614699
0.000298958
-0.00624186
9.48694e-05
-0.00608894
-0.000152916
-0.00563139
-0.000457548
-0.00482802
-0.000803372
-0.00369933
-0.00112869
-0.00237983
-0.0013195
-0.00112353
-0.00125629
-0.000207304
-0.000916227
-0.000204941
-0.000941696
0.000945647
-0.000694959
-0.000246735
-4.69611e-05
-0.000647997
0.000557113
-0.000604073
0.00100712
-0.00045001
0.00125719
-0.000250067
0.0013633
-0.000106108
0.00141562
-5.23202e-05
0.00144603
-3.04084e-05
0.00146137
-1.5339e-05
0.00146549
-4.12016e-06
0.00145958
5.91003e-06
0.00143809
2.1492e-05
0.00138229
5.57979e-05
0.00126049
0.000121797
0.00106313
0.000197356
0.000815933
0.0002472
0.000821218
-0.00210925
0.00536332
-0.00303111
0.00187384
-0.00381289
0.00154924
-0.00442262
0.00124078
-0.00488045
0.00093226
-0.00518104
0.00059955
-0.00529812
0.000211956
-0.0051898
-0.000261239
-0.00480592
-0.000841425
-0.00411143
-0.00149786
-0.00313858
-0.00210153
-0.00202996
-0.00242812
-0.000996703
-0.00228955
-0.000167314
-0.00174561
0.000608065
-0.000980318
0.00106272
-0.00045059
0.00095752
0.000109902
0.000971234
7.06748e-05
0.000886814
0.000456023
-0.000632083
0.000811701
-0.00100367
0.00111643
-0.000908803
0.00135749
-0.000691063
0.00141127
-0.000303846
0.00141902
-0.000113857
0.0014293
-6.25969e-05
0.001438
-3.91115e-05
0.00144308
-2.04165e-05
0.0014454
-6.44145e-06
0.00144512
6.19207e-06
0.00143992
2.66915e-05
0.00140421
9.14997e-05
0.0012528
0.000273215
0.000986784
0.000463368
0.000657936
0.000576047
0.00149257
-0.00144215
0.00706189
-0.0021996
0.00263129
-0.00284875
0.0021984
-0.00333549
0.00172752
-0.00371377
0.00131055
-0.00398297
0.000868743
-0.00411238
0.000341364
-0.00405036
-0.000323251
-0.00373938
-0.00115241
-0.00314706
-0.00209019
-0.00231433
-0.00293426
-0.00139152
-0.00335093
-0.000565124
-0.00311594
9.51929e-05
-0.00240593
0.00061285
-0.00149797
0.000811307
-0.000649044
0.000660413
0.000260799
0.00164371
0.00148811
-0.000586653
0.00168336
-0.000827333
0.00161088
-0.000931191
0.00162966
-0.00092758
0.00181427
-0.000875675
0.00151058
0.00139688
0.00133444
0.00129548
0.00127522
0.00126893
0.00127528
0.00130212
0.00139378
0.0011622
0.000504793
0.000870507
0.000755059
0.000504818
0.000941735
0.00201745
-0.00102283
0.00841412
-0.0015656
0.00317407
-0.00189773
0.00253053
-0.00216257
0.00199236
-0.00238535
0.00153333
-0.00256555
0.00104894
-0.00267047
0.000446284
-0.00263289
-0.000360832
-0.00237864
-0.00140665
-0.00188782
-0.00258101
-0.00122221
-0.00359987
-0.000528329
-0.00404481
4.68798e-05
-0.00369115
0.000504318
-0.00286336
0.000867367
-0.00186102
0.00108935
-0.000871019
0.00128632
6.38316e-05
0.00226963
0.000660396
0.00223063
5.16801e-05
0.00202765
-0.000383673
0.00193037
-0.000730044
0.00180967
-0.000810493
0.0016704
-0.000788303
0.00144257
-0.000647847
0.00174196
-0.000299544
0.00190219
-0.000160376
0.00201964
-0.000117608
0.00211054
-9.10485e-05
0.00216448
-5.40975e-05
0.00215916
5.17108e-06
0.00206648
9.25302e-05
0.00184996
0.000216362
0.0014505
0.000399309
0.0012232
0.00073209
0.000862637
0.00111562
0.000342794
0.00146158
0.00238578
-0.000853064
0.00965826
-0.00115488
0.00347588
-0.000988647
0.0023643
-0.000969792
0.0019735
-0.000993216
0.00155675
-0.00104339
0.0010991
-0.00107194
0.000474836
-0.00100423
-0.000428546
-0.000769272
-0.00164161
-0.000376421
-0.00297386
7.35454e-05
-0.00404983
0.000470417
-0.00444168
0.000737329
-0.00395806
0.00094553
-0.00307156
0.00111842
-0.00203391
0.00129491
-0.0010475
0.00159669
-0.000237945
0.00204541
0.000211679
0.00207387
2.32235e-05
0.00199291
-0.000302717
0.00179514
-0.00053227
0.00159964
-0.000614985
0.0014175
-0.000606167
0.00128446
-0.000514803
0.00133181
-0.000346891
0.00140824
-0.000236806
0.00148351
-0.000192878
0.00155888
-0.000166416
0.00162657
-0.000121788
0.00166674
-3.50032e-05
0.00165456
0.000104717
0.00157375
0.000297168
0.00142831
0.000544751
0.00127969
0.000880711
0.00110832
0.00128698
0.000749651
0.00182025
0.000971537
0.00216389
-0.00116715
0.00216137
-0.00186059
0.000714694
-0.00178409
-0.000999636
0.00404997
0.00704945
-9.99004e-05
0.00145507
0.00112108
0.000157366
0.00114827
0.000958757
0.000443369
0.000868488
0.000819016
0.000517836
0.000762711
0.000719574
0.000530119
0.000585826
0.000500995
0.000578703
0.000283887
0.000142363
0.000720191
-0.000177332
-0.000392705
0.000972453
-0.000822258
-0.00107161
0.00125335
-0.00151711
-0.00173764
0.00144656
-0.00206405
-0.00217899
0.00149363
-0.00226337
-0.00222538
0.00142549
-0.00388991
0.00130181
-0.00294788
0.00119786
-0.00192996
0.00116848
-0.00101811
0.00126946
-0.000338928
0.00146448
1.66601e-05
0.00150021
-1.24964e-05
0.00139408
-0.000196592
0.00121412
-0.000352307
0.00103162
-0.000432478
0.000872531
-0.00044708
0.000765319
-0.000407589
0.000749805
-0.000331376
0.000793033
-0.000280034
0.000863759
-0.000263603
0.000951146
-0.000253803
0.0010497
-0.000220341
0.00115058
-0.000135884
0.00123095
2.43516e-05
0.0012761
0.000252009
0.00130068
0.00052017
0.00134575
0.000835642
0.00146247
0.00117026
0.00168575
0.00159697
0.0020546
0.00179503
0.00237388
0.00184209
0.00186409
0.00122448
0.000147994
-0.00317984
0.000488778
0.00315847
-0.00461656
0.00320468
0.00286695
-0.00236365
0.00206163
0.0014503
-0.0017962
0.00156844
0.00109625
-0.00137786
0.0012265
0.000914079
-0.00113452
0.00105305
0.000667296
-0.00103855
0.00101566
0.000306779
-0.00108095
0.00111511
-0.00021149
-0.00123386
0.00127086
-0.000859263
-0.00138587
0.00139675
-0.00152799
-0.00145736
0.00142077
-0.00202746
-0.00138958
0.00130919
-0.00218298
0.00191129
-0.00326571
-0.00120549
-0.00133
0.00138033
-0.00241692
0.000964375
-0.001514
0.000702432
-0.000756169
0.000614109
-0.000250602
0.000647383
-1.66109e-05
0.000649576
-1.46877e-05
0.000571783
-0.000118798
0.000444279
-0.000224801
0.000304764
-0.000292962
0.000179919
-0.000322234
9.44025e-05
-0.000322073
7.06885e-05
-0.000307662
9.74846e-05
-0.00030683
0.000154483
-0.000320602
0.000232966
-0.000332287
0.000334718
-0.000322094
0.000466105
-0.000267271
0.000628106
-0.00013765
0.000798785
8.13286e-05
0.000974453
0.000344502
0.0011919
0.000618195
0.0014886
0.000873559
0.00192077
0.0011648
0.00247965
0.00123616
0.00326747
0.00105427
0.00347155
0.0010204
0.00369133
0.00198053
-0.00154251
-0.00378369
0.00414569
-0.00286099
0.002499
-0.00457545
0.0046362
-0.00178473
0.00172399
-0.00446899
0.00416509
-0.00146235
0.00176625
-0.00382155
0.00349752
-0.0012058
0.00152984
-0.00321534
0.00298092
-0.000844478
0.0010789
-0.00280117
0.00266948
-0.000380375
0.00051206
-0.002578
0.0025155
0.00021725
-0.000154754
-0.00247395
0.00243539
0.000887712
-0.000849155
-0.0023861
0.00230854
0.00152099
-0.00144343
-0.00219586
0.00204141
0.00194781
-0.00179336
-0.0018498
0.00162579
0.00203025
-0.00180625
0.00173316
-0.00228996
-0.00138043
-0.00132848
0.000917854
-0.00160161
0.000295251
-0.0008914
-6.95925e-05
-0.000391323
-0.000208467
-0.000111726
-0.000223445
-1.63196e-06
-0.000232235
-5.89654e-06
-0.00028376
-6.72723e-05
-0.00037216
-0.000136401
-0.000474777
-0.000190345
-0.000570144
-0.000226868
-0.00064094
-0.000251277
-0.00067666
-0.000271943
-0.000685208
-0.000298283
-0.000677934
-0.000327877
-0.000658819
-0.000351403
-0.00062271
-0.000358204
-0.000553375
-0.000336608
-0.000419118
-0.000271909
-0.000198186
-0.000139605
7.34582e-05
7.28572e-05
0.000378311
0.000313342
0.000721147
0.000530722
0.00114102
0.000744924
0.00158772
0.000789457
0.00192669
0.000715301
0.00101911
0.00192797
0.00501217
-0.00167908
0.00272504
0.00489406
-0.00473357
0.00457617
-0.00197742
0.00213482
-0.00445824
0.00429497
-0.00181049
0.00197377
-0.00411458
0.00394043
-0.00131591
0.00149006
-0.00378157
0.00363918
-0.000672168
0.00081456
-0.00350897
0.0033763
3.83735e-05
9.42904e-05
-0.00322811
0.00305564
0.000734292
-0.000561817
-0.00285159
0.00261217
0.00127952
-0.0010401
-0.0023393
0.00203976
0.00155789
-0.00125835
-0.00172328
0.00139709
0.0015266
-0.00120041
0.000740779
-0.00119952
-0.00105312
-0.000778093
-0.000128208
-0.000732623
-0.000678816
-0.000340791
-0.0009327
-0.000137439
-0.00101884
-2.55862e-05
-0.00103741
1.69389e-05
-0.00105233
9.02384e-06
-0.00109374
-2.58648e-05
-0.00116202
-6.81241e-05
-0.00124455
-0.00010781
-0.00132898
-0.000142439
-0.00140749
-0.000172767
-0.00147886
-0.000200579
-0.00155062
-0.000226517
-0.00163224
-0.000246258
-0.00173214
-0.00025151
-0.00185914
-0.000231201
-0.00202421
-0.00017154
-0.00224117
-5.49509e-05
-0.00250879
0.000128013
-0.00282683
0.000390895
-0.00326495
0.000751465
-0.00394595
0.00121172
-0.00494604
0.00174501
-0.00639522
0.00223864
-0.0081665
0.00248658
-0.00794555
0.00170701
-0.00260093
-0.000333517
0.000382161
5.12701e-05
-0.00326273
0.00299688
-0.00241801
0.00268385
-0.0028625
0.00283461
-0.0020859
0.00211379
-0.00283625
0.00283183
-0.00158467
0.0015891
-0.00280854
0.00276066
-0.000914902
0.000962786
-0.00268445
0.00257778
-0.000219324
0.00032601
-0.0024328
0.00224331
0.000363278
-0.000173784
-0.00201083
0.00174313
0.000761573
-0.000493873
-0.00145091
0.00114531
0.000934107
-0.000628506
-0.000837797
0.000533397
0.000882011
-0.000577612
-0.00077248
-0.000428792
-0.000200459
0.000202207
-0.00130326
-0.000201838
-0.00156904
-7.5021e-05
-0.0016921
-1.437e-05
-0.00173432
1.66286e-05
-0.00174528
2.79021e-05
-0.00175948
2.32247e-05
-0.00179351
8.15766e-06
-0.00184834
-1.32947e-05
-0.0019171
-3.90483e-05
-0.00199505
-6.44872e-05
-0.00208087
-8.69512e-05
-0.00217665
-0.000104801
-0.00228648
-0.000116687
-0.00241282
-0.000119924
-0.00255449
-0.000109836
-0.00270577
-7.99286e-05
-0.00285345
-2.38597e-05
-0.0029821
7.36926e-05
-0.00308905
0.000234962
-0.00318025
0.000482098
-0.00326274
0.000833952
-0.00333967
0.00128865
-0.00337644
0.00178178
-0.00326099
0.00212319
-0.00246604
0.00169163
-0.000466299
-0.000292727
-0.00298149
0.0042147
-0.00364493
-0.000372355
-0.000221931
-0.00173116
-0.00388889
0.00347333
-0.0029577
-0.000849145
0.00179706
-0.00107139
-0.00230223
0.00157656
0.00056695
-0.000197794
-0.0019421
0.00157294
-9.05126e-05
0.000315303
-0.00148439
0.00125961
-0.000480292
0.000588632
-0.00094395
0.000835615
-0.000641996
0.00064262
-0.000394592
0.00039397
-0.000594851
0.000504889
3.08729e-05
5.90877e-05
-0.000374919
0.00020549
0.000272669
-0.000103242
-5.51772e-06
-0.000205896
0.000368624
-0.000157211
0.000403922
-0.000568687
0.000343674
-0.00017891
-0.00198198
-4.2094e-05
0.00071779
0.000877488
-0.00219755
1.37312e-05
-0.00229658
2.40144e-05
-0.00233319
2.22386e-05
-0.00233641
1.98466e-05
-0.00232597
1.74619e-05
-0.00231592
1.31749e-05
-0.00231393
6.16206e-06
-0.0023222
-5.02165e-06
-0.00234136
-1.98933e-05
-0.00237175
-3.40992e-05
-0.00241307
-4.5636e-05
-0.00246467
-5.32006e-05
-0.00252549
-5.58649e-05
-0.00259313
-5.22879e-05
-0.00266281
-4.01633e-05
-0.00272713
-1.56111e-05
-0.00277545
2.44648e-05
-0.00278624
8.44788e-05
-0.00273342
0.000182135
-0.00258492
0.000333597
-0.00230829
0.000557328
-0.00188857
0.000868923
-0.00130762
0.00120083
-0.000298706
0.00111427
0.00167376
-0.000280839
0.00349384
-0.00211281
0.000605112
0.00224911
-0.0019471
0.00251074
-0.00374339
0.00246601
-0.00123336
0.00457908
-0.00487335
0.000640563
-0.000346294
0.0046298
-0.0041196
-0.000889572
0.000379368
0.00355842
-0.00301603
-0.00108196
0.000539566
0.00251739
-0.0020776
-0.000911067
0.000471276
0.00170729
-0.0014144
-0.000621063
0.000328172
0.00120187
-0.00106707
-0.000318368
0.000183566
0.00100136
-0.000990577
-0.000100726
8.99386e-05
0.00101695
-0.00106227
-1.05347e-05
5.58499e-05
0.00111203
-0.00115901
1.86132e-05
2.83668e-05
0.00120817
-0.00125293
0.000111641
-6.68858e-05
-0.00275773
0.00117863
0.00154856
-0.00273253
-0.00269706
-0.00266335
-0.00263197
-0.00260287
-0.00257793
-0.00255986
-0.00255285
-0.00256064
-0.00258262
-0.00261618
-0.00265741
-0.00270144
-0.00274208
-0.00277084
-0.00277531
-0.00274003
-0.00264509
-0.00245288
-0.00210963
-0.00154309
-0.00066541
0.000543654
0.00166576
0.00139313
-0.000712272
-0.0043154
0.00374881
0.00196211
0.00122419
0.00100959
0.000811553
0.000515488
7.70703e-05
-0.000511453
-0.00118662
-0.00179825
-0.00214779
-0.00212167
-0.00288629
-0.00251335
0.00161594
-0.0022662
0.00183644
-0.00157321
0.00174041
-0.00135082
0.00169436
-0.00103801
0.00132019
-0.000629792
0.000809541
-9.81439e-05
0.000189623
0.000547305
-0.000505749
0.00121688
-0.00116758
0.00176952
-0.00165684
0.00203515
-0.00184354
0.00193141
-0.00168606
-0.00529095
-0.00162132
0.00217871
-0.00196834
0.00208627
-0.00158729
0.00176768
-0.00100728
0.00116614
-0.000321706
0.000451917
0.000396382
-0.000248187
0.0010341
-0.000830042
0.00145692
-0.00118405
0.00157973
-0.00126325
0.00141248
-0.00106851
-0.00323968
-0.00269418
0.00267113
-0.00224654
0.00238092
-0.00186511
0.00186347
-0.00126229
0.00128559
-0.000560414
0.000636629
9.17043e-05
5.32808e-05
0.000588927
-0.000356438
0.000877201
-0.000584983
0.000933791
-0.000626279
0.000799231
-0.000466293
-0.001446
-0.00387284
-0.00267265
-0.00208408
0.000923443
-0.00216238
0.00165795
-0.00172313
0.00143483
-0.00122246
0.00105748
-0.000662536
0.000609176
-0.000158018
0.000205787
0.00017143
-4.14613e-05
0.000338
-0.00013803
0.000370195
-0.00017217
0.000272078
-0.000122976
0.00117582
0.00275941
-0.00142449
0.00167043
-0.000834746
-0.000336433
9.28853e-05
-0.00106901
0.000507834
-0.00101887
0.000520236
-0.00077459
0.000404277
-0.000464521
0.000251988
-0.000194279
0.000128568
-4.09786e-05
6.73507e-05
3.98487e-06
4.57762e-05
4.77732e-05
1.39105e-06
0.000219493
-0.000293791
-0.00439393
0.00439988
-0.0040958
0.00376136
-0.00341234
0.00304624
-0.00270501
0.00241329
-0.00218683
0.00200965
-0.00189534
0.00182174
-0.00180067
0.00180643
-0.00184228
0.00187073
-0.00190099
0.00189399
-0.00186526
0.00178561
-0.00167298
0.00152025
-5.66748e-05
0.00254479
0.00123632
-0.00437198
0.00485965
-0.00497874
0.00476757
-0.00449359
0.00421293
-0.00394582
0.00370881
-0.00351107
0.00335096
-0.00321888
0.00310249
-0.00299313
0.00287827
-0.00274479
0.00258088
-0.00238097
0.0021455
-0.00188169
0.00160205
-0.00437859
0.00409539
-0.00393512
0.00382299
-0.00372557
0.00363096
-0.00353482
0.00343448
-0.00332599
0.00320096
-0.00304449
0.00284595
-0.00260485
0.00232632
-0.00201948
0.00169523
-0.00136577
0.00104737
-0.000638325
0.00101995
-0.0012385
0.00141019
-0.00155054
0.00165525
-0.00171838
0.00173723
-0.00171133
0.00164275
-0.00153802
0.00139511
-0.0012101
0.000988901
-0.000741917
0.000482033
-0.000225947
-7.99199e-06
0.00148579
-0.00290867
0.00391089
-0.00411947
0.00353246
-0.00284547
0.00225653
-0.00176554
0.00134958
-0.00100104
0.000718147
-0.000503594
0.000358939
-0.000283339
0.000271833
-0.000313473
0.000395915
-0.000509694
0.00064374
-0.000782339
0.000906736
-0.000974006
0.00333253
-0.00452819
0.00532679
-0.0056382
0.00551157
-0.00509987
0.00456168
-0.00399396
0.00344777
-0.00295267
0.00252665
-0.00217873
0.00190893
-0.00170937
0.00156641
-0.00146341
0.00138403
-0.00131685
0.00126015
-0.001221
0.00120885
-0.00126511
)
;

boundaryField
{
    floor
    {
        type            calculated;
        value           nonuniform List<scalar> 
36
(
0
0
0
0
0
0
0
0
0
0
0
0
0
0
0
0
0
0
0
-5.2863e-06
-1.34226e-05
-2.00568e-05
-2.55352e-05
-2.26807e-05
-2.1253e-05
-2.00243e-05
-2.36007e-06
-4.05748e-06
-4.70403e-06
-5.4536e-06
-3.95031e-06
-8.25729e-06
-1.18418e-05
-1.20557e-05
-1.46376e-05
-1.26801e-05
)
;
    }
    ceiling
    {
        type            calculated;
        value           nonuniform List<scalar> 
58
(
-3.90637e-05
-3.61441e-05
-3.37409e-05
-3.0355e-05
-2.59586e-05
-2.17535e-05
-1.78124e-05
-1.4392e-05
-1.20333e-05
-1.09271e-05
-1.07578e-05
-1.03432e-05
-1.156e-05
-1.1469e-05
-1.14506e-05
-1.14776e-05
-1.15375e-05
-1.16355e-05
-1.17678e-05
-1.19118e-05
-1.20328e-05
-1.21037e-05
-1.21189e-05
-1.20769e-05
-1.1981e-05
-1.18355e-05
-1.16445e-05
-1.14111e-05
-1.11367e-05
-1.08187e-05
-1.0462e-05
-1.0074e-05
-9.65827e-06
-9.21805e-06
-8.75525e-06
-8.23968e-06
-7.83352e-06
-8.21509e-06
-7.40684e-06
-4.91752e-06
1.67599e-05
9.24806e-06
-0.000132487
-3.87497e-05
-3.77043e-05
-3.48929e-05
-3.23392e-05
-2.81612e-05
-2.38196e-05
-1.97463e-05
-1.60018e-05
-1.30563e-05
-1.13271e-05
-1.07866e-05
-1.06216e-05
2.64673e-05
1.08866e-05
-9.99136e-05
)
;
    }
    sWall
    {
        type            calculated;
        value           nonuniform List<scalar> 4(-0.000186478 -0.00022 -0.00019742 -0.000263265);
    }
    nWall
    {
        type            calculated;
        value           nonuniform List<scalar> 6(-5.64812e-05 -6.79929e-05 -7.17841e-05 -8.57404e-05 -9.27668e-05 -0.000102245);
    }
    sideWalls
    {
        type            empty;
        value           nonuniform 0();
    }
    glass1
    {
        type            calculated;
        value           nonuniform List<scalar> 10(-6.24732e-05 -0.000168471 -0.000256418 -0.000329405 -0.000391083 -0.000441522 -0.000445792 -0.000416983 -0.000467418 -0.000464495);
    }
    glass2
    {
        type            calculated;
        value           nonuniform List<scalar> 2(-0.000301731 -0.000332451);
    }
    sun
    {
        type            calculated;
        value           uniform 0;
    }
    Table_master
    {
        type            calculated;
        value           nonuniform List<scalar> 9(-1.53896e-07 -1.54044e-07 -1.54094e-07 -1.54124e-07 -1.54145e-07 -1.54158e-07 -1.54163e-07 -1.54158e-07 -1.54129e-07);
    }
    Table_slave
    {
        type            calculated;
        value           nonuniform List<scalar> 9(1.53785e-07 1.53777e-07 1.53735e-07 1.537e-07 1.53679e-07 1.5368e-07 1.53686e-07 1.53723e-07 1.53806e-07);
    }
    inlet
    {
        type            calculated;
        value           nonuniform List<scalar> 2(-0.00573372 -0.00594001);
    }
    outlet
    {
        type            calculated;
        value           nonuniform List<scalar> 4(0.00509691 0.00441482 0.00295518 0.00584198);
    }
}


// ************************************************************************* //
