/*--------------------------------*- C++ -*----------------------------------*\
  =========                 |
  \\      /  F ield         | OpenFOAM: The Open Source CFD Toolbox
   \\    /   O peration     | Website:  https://openfoam.org
    \\  /    A nd           | Version:  6
     \\/     M anipulation  |
\*---------------------------------------------------------------------------*/
FoamFile
{
    version     2.0;
    format      ascii;
    class       volScalarField;
    location    "8700";
    object      T;
}
// * * * * * * * * * * * * * * * * * * * * * * * * * * * * * * * * * * * * * //

dimensions      [0 0 0 1 0 0 0];

internalField   nonuniform List<scalar> 
662
(
302.553
302.261
302.247
302.242
302.237
302.232
302.226
302.22
302.212
302.198
302.179
302.16
302.15
302.156
302.19
302.347
302.323
302.316
302.322
302.329
302.335
302.341
302.346
302.352
302.357
302.363
302.368
302.374
302.379
302.385
302.391
302.399
302.425
302.767
302.315
302.294
302.3
302.306
302.309
302.309
302.305
302.292
302.263
302.216
302.165
302.136
302.137
302.153
302.166
302.177
302.2
302.354
302.302
302.298
302.306
302.316
302.32
302.322
302.324
302.325
302.327
302.328
302.33
302.332
302.336
302.341
302.349
302.361
302.406
302.991
302.381
302.345
302.366
302.391
302.413
302.429
302.434
302.422
302.372
302.28
302.179
302.127
302.128
302.148
302.163
302.172
302.193
302.306
302.287
302.291
302.308
302.327
302.327
302.327
302.327
302.327
302.327
302.327
302.327
302.328
302.329
302.334
302.34
302.352
302.4
303.21
302.462
302.392
302.422
302.468
302.516
302.561
302.59
302.587
302.516
302.361
302.192
302.114
302.12
302.15
302.172
302.181
302.19
302.201
302.222
302.254
302.291
302.328
302.359
302.383
302.4
302.415
302.427
302.437
302.444
302.45
302.454
302.456
302.424
302.392
302.373
302.403
303.412
302.575
302.453
302.464
302.514
302.577
302.648
302.715
302.738
302.651
302.425
302.191
302.098
302.111
302.157
302.194
302.21
302.218
302.235
302.264
302.302
302.344
302.384
302.418
302.448
302.47
302.487
302.5
302.509
302.513
302.512
302.507
302.497
302.472
302.435
302.401
302.405
302.506
302.585
302.587
303.571
302.79
302.616
302.562
302.572
302.614
302.679
302.772
302.823
302.71
302.435
302.174
302.071
302.105
302.176
302.234
302.265
302.281
302.305
302.339
302.378
302.419
302.457
302.49
302.517
302.537
302.551
302.562
302.567
302.568
302.561
302.549
302.533
302.508
302.473
302.434
302.419
302.463
302.494
302.537
304.827
303.524
303.122
302.905
302.787
302.743
302.761
302.832
302.891
302.779
302.458
302.13
302.013
302.108
302.219
302.301
302.346
302.372
302.399
302.431
302.467
302.503
302.535
302.562
302.583
302.598
302.608
302.613
302.614
302.611
302.601
302.585
302.564
302.539
302.508
302.472
302.451
302.459
302.474
302.506
307.132
304.995
304.249
303.817
303.486
303.258
303.133
303.074
302.936
302.599
302.17
301.916
301.992
302.161
302.309
302.402
302.448
302.472
302.496
302.524
302.554
302.582
302.606
302.624
302.637
302.645
302.649
302.65
302.648
302.642
302.633
302.618
302.597
302.574
302.55
302.526
302.512
302.519
302.541
302.709
293.648
299.505
301.61
302.363
302.578
302.545
302.277
301.882
301.657
301.728
302.092
302.306
302.453
302.514
302.543
302.564
302.584
302.606
302.627
302.646
302.661
302.671
302.676
302.679
302.679
302.677
302.674
302.669
302.666
302.664
302.665
302.67
302.685
302.71
302.746
302.785
302.819
302.897
295.44
295.286
297.669
299.477
300.417
300.75
300.868
301.084
301.457
301.886
302.365
302.503
302.572
302.605
302.624
302.64
302.655
302.669
302.682
302.692
302.699
302.703
302.705
302.705
302.705
302.705
302.705
302.705
302.706
302.708
302.712
302.719
302.733
302.753
302.779
302.806
302.831
302.882
299.82
297.756
295.632
295.661
297.342
298.874
299.794
300.392
300.93
301.472
301.994
302.35
302.579
302.629
302.658
302.675
302.687
302.696
302.705
302.713
302.718
302.722
302.725
302.726
302.727
302.727
302.727
302.728
302.728
302.729
302.73
302.732
302.735
302.741
302.75
302.764
302.781
302.801
302.829
302.857
300.082
298.953
298.451
298.5
299.265
300.069
300.747
301.355
301.885
302.273
302.523
302.654
302.712
302.725
302.734
302.741
302.747
302.752
302.755
302.757
302.759
302.759
302.759
302.758
302.757
302.756
302.755
302.754
302.753
302.752
302.751
302.751
302.752
302.754
302.758
302.766
302.777
302.786
302.848
302.956
303.778
303.315
302.996
302.833
302.751
302.74
302.787
302.873
302.863
302.635
302.277
302.044
305.806
304.54
304.018
303.639
303.359
303.183
303.102
303.025
302.792
302.379
302.008
301.899
297.54
300.81
302.088
302.512
302.586
302.443
302.076
301.733
301.659
301.843
294.385
296.471
298.69
300.041
300.641
300.807
300.956
301.254
301.674
302.072
299.113
296.511
295.125
296.467
298.174
299.393
300.115
300.659
301.201
301.736
302.197
302.459
299.29
298.659
298.362
298.847
299.682
300.42
301.058
301.634
302.098
302.414
302.601
302.686
303.99
303.998
303.614
303.329
303.113
302.977
302.927
302.947
302.937
302.731
302.348
302.033
307.217
305.037
304.457
303.929
303.568
303.327
303.171
303.048
302.77
302.325
301.927
301.8
295.327
296.447
299.227
300.804
301.479
301.628
301.52
301.383
301.462
301.748
293.951
295.166
297.138
298.826
299.821
300.314
300.675
301.142
301.663
302.113
299.845
298.174
296.938
296.933
298.171
299.334
300.15
300.802
301.405
301.902
302.291
302.519
299.883
299.884
299.957
300.107
300.543
301.061
301.564
302.015
302.353
302.561
302.671
302.709
304.288
303.79
303.461
303.211
303.033
302.941
302.931
302.957
302.864
302.549
302.165
301.97
305.834
304.808
304.167
303.731
303.435
303.24
303.112
302.935
302.56
302.102
301.824
301.844
294.881
297.971
300.158
301.226
301.604
301.598
301.435
301.39
301.588
301.916
294.473
296.119
298.065
299.404
300.11
300.484
300.897
301.401
301.905
302.279
298.931
297.475
296.645
297.517
298.794
299.775
300.486
301.11
301.668
302.112
302.427
302.572
299.866
299.914
300.011
300.301
300.801
301.316
301.8
302.201
302.471
302.627
302.697
302.712
)
;

boundaryField
{
    floor
    {
        type            wallHeatTransfer;
        Tinf            uniform 305.2;
        alphaWall       uniform 0.24;
        value           nonuniform List<scalar> 
36
(
302.503
302.873
302.799
302.754
302.749
302.761
302.787
302.817
302.848
302.877
302.905
302.932
302.958
302.983
303.007
303.032
303.058
303.076
303.129
303.129
303.003
302.935
302.89
302.888
302.943
302.924
302.503
302.439
302.493
302.566
302.873
302.566
302.879
302.514
302.696
302.487
)
;
    }
    ceiling
    {
        type            wallHeatTransfer;
        Tinf            uniform 303.2;
        alphaWall       uniform 0.24;
        value           nonuniform List<scalar> 
58
(
300.083
300.119
300.203
300.472
300.947
301.437
301.898
302.28
302.537
302.686
302.756
302.769
302.773
302.785
302.795
302.802
302.808
302.813
302.817
302.82
302.822
302.823
302.823
302.822
302.821
302.819
302.817
302.814
302.812
302.809
302.806
302.804
302.802
302.802
302.803
302.808
302.817
302.829
302.886
302.98
305.688
304.725
294.878
300.295
300.095
300.154
300.29
300.702
301.194
301.674
302.103
302.424
302.623
302.73
302.767
306.9
304.941
296.094
)
;
    }
    sWall
    {
        type            wallHeatTransfer;
        Tinf            uniform 315.2;
        alphaWall       uniform 0.36;
        value           nonuniform List<scalar> 4(301.088 301.212 301.074 301.589);
    }
    nWall
    {
        type            wallHeatTransfer;
        Tinf            uniform 307.2;
        alphaWall       uniform 0.36;
        value           nonuniform List<scalar> 6(303.427 303.365 303.247 303.489 303.451 303.55);
    }
    sideWalls
    {
        type            empty;
    }
    glass1
    {
        type            wallHeatTransfer;
        Tinf            uniform 315.2;
        alphaWall       uniform 4.3;
        value           nonuniform List<scalar> 10(311.383 310.714 310.256 309.883 309.58 309.278 309.271 311.371 309.812 311.423);
    }
    glass2
    {
        type            wallHeatTransfer;
        Tinf            uniform 307.2;
        alphaWall       uniform 4.3;
        value           nonuniform List<scalar> 2(305.459 305.589);
    }
    sun
    {
        type            wallHeatTransfer;
        Tinf            uniform 305.2;
        alphaWall       uniform 0.24;
        value           nonuniform List<scalar> 
14
(
302.849
302.572
302.555
302.54
302.526
302.513
302.501
302.488
302.472
302.453
302.432
302.412
302.407
302.425
)
;
    }
    Table_master
    {
        type            zeroGradient;
    }
    Table_slave
    {
        type            zeroGradient;
    }
    inlet
    {
        type            fixedValue;
        value           uniform 293.15;
    }
    outlet
    {
        type            zeroGradient;
    }
}


// ************************************************************************* //
