/*--------------------------------*- C++ -*----------------------------------*\
  =========                 |
  \\      /  F ield         | OpenFOAM: The Open Source CFD Toolbox
   \\    /   O peration     | Website:  https://openfoam.org
    \\  /    A nd           | Version:  6
     \\/     M anipulation  |
\*---------------------------------------------------------------------------*/
FoamFile
{
    version     2.0;
    format      ascii;
    class       volScalarField;
    location    "10200";
    object      alphat;
}
// * * * * * * * * * * * * * * * * * * * * * * * * * * * * * * * * * * * * * //

dimensions      [1 -1 -1 0 0 0 0];

internalField   nonuniform List<scalar> 
778
(
0.00104101
0.00111058
0.0011066
0.00115464
0.00119866
0.00123863
0.00127584
0.0013117
0.00134781
0.00138618
0.00142277
0.00145754
0.0014918
0.00152866
0.00156714
0.000736673
0.00105561
0.00106407
0.00103825
0.000995112
0.00093751
0.000880158
0.000827359
0.000779763
0.000737074
0.000699018
0.000664829
0.00063368
0.000604606
0.000576314
0.000546733
0.000522171
0.00047263
0.00152469
0.00300743
0.00263939
0.00304651
0.00334198
0.0036552
0.00396759
0.00425542
0.00448705
0.00462184
0.0047011
0.0046685
0.00443584
0.00385929
0.0028188
0.00171602
0.00163614
0.00156623
0.00131908
0.00224672
0.00311399
0.00362598
0.00364969
0.00288014
0.00246324
0.00217411
0.00195467
0.00178022
0.00163156
0.00150011
0.00137775
0.00125802
0.00115057
0.00105791
0.00119169
0.000599312
0.00193418
0.00419901
0.00311347
0.00445336
0.00497616
0.00541851
0.00582016
0.00617352
0.00647276
0.0067073
0.00693468
0.00717415
0.00739456
0.0075264
0.00744096
0.00681463
0.0049851
0.00192144
0.00166369
0.0035588
0.00496715
0.00563373
0.00512431
0.00135205
0.00117561
0.00103944
0.000932903
0.000848146
0.000779762
0.000724007
0.000678665
0.000643311
0.000707185
0.000831899
0.00131754
0.000681927
0.00232915
0.00565876
0.00297917
0.00500686
0.00578067
0.00619458
0.00649878
0.00672365
0.00689132
0.00702711
0.00722052
0.00754769
0.00802556
0.00862712
0.00923275
0.0095329
0.00895515
0.00668691
0.00191348
0.00442617
0.00658866
0.00768964
0.00796258
0.00679908
0.00153935
0.00140018
0.00129243
0.00120276
0.00112634
0.00105773
0.000993075
0.000928875
0.000859543
0.000802927
0.000832273
0.00142664
0.000751
0.00271843
0.00749098
0.00300575
0.00475923
0.00594881
0.00630159
0.00642941
0.00643395
0.0063696
0.00631256
0.00639325
0.00671087
0.00729433
0.00812131
0.00908118
0.00996637
0.0105283
0.0105227
0.0094435
0.00960781
0.00982923
0.0098618
0.00966262
0.00904529
0.00719926
0.00621904
0.00554748
0.00500238
0.00446716
0.00394841
0.00344081
0.002934
0.00241362
0.00185398
0.00141469
0.0014134
0.00111837
0.000895758
0.00118615
0.00113726
0.00310139
0.00954126
0.00353876
0.00401306
0.00569929
0.00609064
0.0060589
0.0058403
0.00552805
0.00527054
0.00526454
0.00559727
0.00626191
0.00722062
0.0083431
0.00946552
0.0104199
0.01103
0.0111415
0.0110302
0.0108354
0.010559
0.0102031
0.00974984
0.00908784
0.00844974
0.00787023
0.00731045
0.00670545
0.00605911
0.00536877
0.0046288
0.00383462
0.00299211
0.00222925
0.00167376
0.00130014
0.00145822
0.00253886
0.00135976
0.00349219
0.0114364
0.00471579
0.00328769
0.00512065
0.00576083
0.00568928
0.0053358
0.0048234
0.00437294
0.00435992
0.00478019
0.00554108
0.00661321
0.00783273
0.00904042
0.0100796
0.0108236
0.011166
0.01114
0.0108961
0.0105263
0.0101026
0.00967969
0.00927051
0.00889485
0.0085418
0.00816518
0.00770979
0.00716153
0.00651262
0.00576016
0.00490704
0.00397459
0.00306264
0.00221393
0.00163099
0.00145617
0.00258784
0.00160344
0.00382795
0.0128689
0.00642873
0.00313086
0.00405592
0.00510684
0.00525314
0.00496268
0.00435717
0.00374487
0.00388359
0.00443972
0.00529133
0.0063965
0.00766416
0.00892846
0.010006
0.010754
0.0110935
0.0110491
0.0107335
0.0102679
0.00976695
0.0093225
0.00897986
0.00873506
0.00854402
0.00833638
0.00804688
0.00764169
0.00710524
0.00643451
0.00563573
0.00473192
0.00379091
0.00284208
0.0019852
0.00134205
0.00369846
0.00209899
0.00392908
0.0121727
0.00795132
0.00404834
0.00274942
0.00336847
0.00394306
0.00399178
0.00352443
0.0034251
0.00378075
0.00443519
0.00535722
0.0065308
0.00786057
0.00916398
0.0102369
0.0109257
0.0111666
0.0109992
0.0105412
0.00994059
0.00934444
0.00886863
0.00856669
0.00841866
0.00835157
0.00827178
0.00810495
0.00781187
0.00737722
0.00679947
0.00608557
0.00525376
0.00433943
0.00331234
0.00190587
0.00173304
0.00566391
0.0024085
0.0038495
0.00980944
0.00820768
0.00555454
0.00366914
0.0028403
0.00268961
0.00281626
0.00305267
0.00342902
0.00396388
0.00470151
0.00570625
0.00697372
0.00837717
0.00969875
0.0107139
0.0112702
0.0113255
0.0109481
0.0102862
0.00952464
0.00884422
0.00837775
0.00816424
0.0081399
0.00818664
0.00818599
0.00807749
0.00783965
0.00746548
0.00695446
0.00630997
0.00553723
0.00461469
0.00323488
0.00138752
0.00344846
0.00524534
0.00243312
0.00360569
0.00838245
0.00793326
0.00635357
0.00489105
0.00393766
0.00346565
0.00335846
0.00355322
0.00391261
0.00443639
0.00521692
0.00632913
0.00772103
0.00919659
0.0104885
0.0113598
0.0116787
0.0114447
0.0107738
0.00986512
0.00895482
0.0082616
0.00791365
0.00787472
0.0079905
0.00810613
0.00810858
0.0079936
0.00776313
0.00741316
0.00693759
0.00632913
0.00556895
0.00457152
0.00293519
0.00147874
0.0037672
0.00529579
0.00241571
0.00328285
0.00755794
0.00765165
0.00672362
0.005721
0.00496553
0.00452034
0.00436079
0.00440027
0.00461772
0.00510042
0.00597526
0.00726407
0.00880726
0.0103129
0.0114705
0.0120579
0.0119969
0.0113569
0.0103246
0.00917491
0.00821225
0.00766561
0.00755824
0.00765893
0.00781286
0.00791162
0.00788298
0.00774873
0.00751603
0.00717725
0.00671027
0.00608685
0.00524959
0.00410099
0.00259867
0.00171799
0.00378873
0.0058614
0.0024502
0.0029934
0.00676187
0.00730655
0.00686839
0.00622515
0.00568436
0.00532445
0.00514828
0.0050963
0.00528372
0.0058993
0.00704556
0.00860711
0.0102765
0.0116786
0.0125062
0.0126065
0.0119985
0.0108561
0.00946034
0.00819461
0.0073821
0.00703067
0.0070014
0.00711708
0.00725531
0.00733409
0.00730356
0.0071645
0.00692788
0.00657898
0.00607506
0.00533551
0.00427919
0.00301002
0.00207271
0.00208896
0.00409365
0.00577761
0.00260278
0.00300445
0.00671197
0.00746586
0.00695107
0.00643031
0.00600373
0.00569604
0.00549671
0.00549044
0.0059461
0.0070338
0.00865954
0.0104895
0.0120944
0.0131009
0.0132978
0.0126749
0.0113845
0.00974988
0.00816415
0.00701431
0.00634946
0.00605867
0.00601312
0.00609221
0.00619374
0.0062468
0.00621355
0.00605804
0.00579724
0.00539869
0.00477586
0.00382962
0.00271123
0.00198285
0.00197042
0.0026589
0.0046656
0.00601496
0.00262607
0.00271031
0.00282053
0.00416534
0.00489718
0.00512439
0.00512903
0.00508062
0.00517783
0.00581088
0.00716192
0.00906608
0.0111193
0.0128649
0.0139245
0.0140851
0.0133205
0.0118243
0.00988356
0.00803416
0.00659181
0.00564095
0.00511814
0.00490035
0.00484849
0.00485632
0.00485405
0.00480389
0.00469221
0.00449591
0.00420922
0.0038179
0.00326067
0.00255191
0.00199079
0.00193234
0.00240765
0.00333114
0.00471142
0.00573982
0.00248582
0.000964089
0.00173747
0.00266451
0.00340814
0.00427366
0.00574511
0.00791204
0.0103208
0.0125133
0.0141428
0.0149717
0.0148501
0.0137968
0.0119391
0.00975
0.0076926
0.00607779
0.00501938
0.00446048
0.00420743
0.00409075
0.00401225
0.00392117
0.00379503
0.00363312
0.00344985
0.00326271
0.00306324
0.00284919
0.00260081
0.00232384
0.00214884
0.00229992
0.00287353
0.00376228
0.00465782
0.0049568
0.00236825
0.00178758
0.00246735
0.00358784
0.00559077
0.00831029
0.0110338
0.0131425
0.0146647
0.0155818
0.0158195
0.015253
0.0137683
0.0116068
0.00919495
0.00701388
0.00541763
0.00451509
0.00411231
0.00395202
0.0038789
0.00382214
0.00375176
0.00365909
0.00354926
0.00343485
0.00332792
0.00323323
0.00314464
0.00305722
0.00297021
0.00289206
0.0028685
0.00301679
0.00348266
0.00430032
0.00530939
0.00617489
0.00240915
0.00323873
0.00787382
0.00726436
0.00648905
0.00822565
0.0109499
0.0132445
0.0147939
0.0156147
0.0158185
0.0154903
0.0145701
0.0130063
0.0108607
0.00846706
0.00637216
0.00502036
0.00438885
0.00416567
0.00410526
0.00408963
0.00406955
0.00402739
0.00396189
0.00388076
0.00379528
0.00371676
0.0036552
0.00361935
0.00361542
0.00364214
0.00369519
0.00377331
0.00391177
0.0041719
0.00464454
0.00545683
0.0068813
0.00711559
0.00266123
0.00309534
0.00597902
0.00771349
0.0098743
0.0109525
0.0120608
0.0127024
0.0128541
0.0126075
0.0120217
0.0111075
0.00985038
0.00828964
0.00663375
0.00523618
0.00436602
0.00396325
0.00383297
0.00382785
0.00386695
0.00390744
0.00392787
0.00392098
0.00388888
0.0038386
0.00377912
0.00372175
0.00368256
0.00368372
0.0037506
0.00390453
0.00415083
0.00446041
0.00478197
0.00516248
0.00570616
0.00650508
0.00781015
0.00766968
0.00277422
0.00289442
0.00248114
0.00246883
0.00254098
0.0026005
0.002523
0.00237267
0.00219684
0.00201873
0.00184595
0.0016801
0.00152519
0.00139268
0.00129785
0.00124711
0.00122874
0.00122973
0.00123996
0.00125382
0.00126856
0.0012831
0.00129743
0.00131241
0.00132962
0.00135128
0.00138015
0.00141931
0.0014715
0.00153802
0.00161782
0.00170766
0.00180376
0.00190419
0.00201044
0.00212053
0.0022356
0.00235722
0.00248999
0.00263316
0.00253741
)
;

boundaryField
{
    floor
    {
        type            compressible::alphatWallFunction;
        Prt             0.85;
        value           nonuniform List<scalar> 
36
(
0.000219857
0.00010446
0.000149969
0.000151152
0.000147538
0.000141475
0.000133333
0.000125167
0.000117595
0.000110719
0.00010451
9.89382e-05
9.39012e-05
8.92849e-05
8.49511e-05
8.07094e-05
7.62469e-05
7.2519e-05
6.49329e-05
6.49321e-05
8.41604e-05
9.6425e-05
0.000106541
0.000127398
0.000168134
0.000161363
0.000219855
0.000239673
0.000229063
0.00021973
0.000104459
0.000219728
0.000186347
0.000266706
0.000232721
0.000265665
)
;
    }
    ceiling
    {
        type            compressible::alphatWallFunction;
        Prt             0.85;
        value           nonuniform List<scalar> 
43
(
0.000391138
0.000338963
0.000337401
0.000346585
0.000354149
0.000344352
0.000325221
0.000302668
0.000279621
0.000257047
0.000235158
0.000214486
0.000196604
0.000183681
0.000176716
0.00017418
0.000174312
0.00017572
0.000177629
0.000179659
0.000181657
0.000183622
0.000185668
0.000188006
0.000190935
0.000194825
0.000200085
0.000207078
0.000215975
0.000226624
0.000238578
0.000251317
0.000264563
0.0002785
0.000292869
0.000307785
0.000323439
0.000340413
0.000358569
0.000346281
0.000368324
0.00038218
0.000248643
)
;
    }
    sWall
    {
        type            compressible::alphatWallFunction;
        Prt             0.85;
        value           nonuniform List<scalar> 9(0.000507608 0.000477865 0.000438167 0.000402238 0.000403606 0.000366749 0.000432074 0.000414344 0.000389388);
    }
    nWall
    {
        type            compressible::alphatWallFunction;
        Prt             0.85;
        value           nonuniform List<scalar> 
14
(
0.000160914
0.000191436
0.00022424
0.000332372
0.000330222
0.000334916
0.000354156
0.000356874
0.000338917
0.000323887
0.000329557
0.00036125
0.000375416
0.000345586
)
;
    }
    sideWalls
    {
        type            empty;
    }
    glass1
    {
        type            compressible::alphatWallFunction;
        Prt             0.85;
        value           nonuniform List<scalar> 9(0.000143931 0.000209138 0.000262696 0.000313306 0.000362381 0.000410006 0.000458019 0.000498878 0.000511233);
    }
    glass2
    {
        type            compressible::alphatWallFunction;
        Prt             0.85;
        value           nonuniform List<scalar> 2(0.000287187 0.000326855);
    }
    sun
    {
        type            compressible::alphatWallFunction;
        Prt             0.85;
        value           nonuniform List<scalar> 
14
(
0.000147965
0.000157652
0.000157096
0.000163764
0.000169847
0.000175348
0.000180451
0.000185354
0.000190274
0.000195486
0.000200442
0.000205137
0.000209752
0.000214703
)
;
    }
    Table_master
    {
        type            compressible::alphatWallFunction;
        Prt             0.85;
        value           nonuniform List<scalar> 9(0.000191105 0.000166912 0.000147958 0.000132928 0.000120826 0.000110958 0.000102835 9.61736e-05 9.09422e-05);
    }
    Table_slave
    {
        type            compressible::alphatWallFunction;
        Prt             0.85;
        value           nonuniform List<scalar> 9(0.000216404 0.000197645 0.000182977 0.000170665 0.000160089 0.000150524 0.000141444 0.000132359 0.000122464);
    }
    inlet
    {
        type            fixedValue;
        value           uniform 1.94e-05;
    }
    outlet
    {
        type            zeroGradient;
    }
}


// ************************************************************************* //
