/*--------------------------------*- C++ -*----------------------------------*\
  =========                 |
  \\      /  F ield         | OpenFOAM: The Open Source CFD Toolbox
   \\    /   O peration     | Website:  https://openfoam.org
    \\  /    A nd           | Version:  6
     \\/     M anipulation  |
\*---------------------------------------------------------------------------*/
FoamFile
{
    version     2.0;
    format      ascii;
    class       surfaceScalarField;
    location    "10900";
    object      phi;
}
// * * * * * * * * * * * * * * * * * * * * * * * * * * * * * * * * * * * * * //

dimensions      [1 0 -1 0 0 0 0];

internalField   nonuniform List<scalar> 
1482
(
-0.00279979
0.00286383
-0.00348404
0.000684245
-0.00414474
0.000660705
-0.00475886
0.000614118
-0.0052803
0.000521441
-0.00569232
0.000412021
-0.00598369
0.00029137
-0.00614134
0.000157646
-0.0061479
6.56398e-06
-0.00597738
-0.000170524
-0.00559976
-0.000377616
-0.00498395
-0.000615811
-0.00405969
-0.000924258
-0.00258065
-0.00147905
-0.00257773
-6.49336e-05
6.97875e-05
0.000779249
-0.000844182
0.00143242
-0.000653172
0.00183259
-0.000400169
0.00205491
-0.000222319
0.00215961
-0.000104698
0.00220686
-4.72573e-05
0.0022295
-2.26324e-05
0.00223912
-9.62456e-06
0.00223996
-8.43341e-07
0.0022329
7.06569e-06
0.00221389
1.90039e-05
0.00216961
4.42848e-05
0.00206682
0.000102789
0.00185011
0.00021671
0.0014925
0.000357613
0.00102072
0.000471781
0.00102715
-0.00204039
0.00507454
-0.00290853
0.00155238
-0.00369436
0.00144653
-0.0043454
0.00126516
-0.00488269
0.00105874
-0.00531154
0.000840874
-0.00563018
0.000610007
-0.00583179
0.000359262
-0.00590569
8.04617e-05
-0.00584399
-0.000232227
-0.00564083
-0.000580774
-0.00528486
-0.000971782
-0.00477487
-0.00143425
-0.00428893
-0.00196498
-0.00470504
-0.00216163
-0.00311836
-0.00158124
-0.00163468
-0.001478
-0.00161983
0.0013175
-0.0012375
0.00166149
-0.00118818
0.00191331
-0.000904984
0.00210487
-0.000591732
0.00221264
-0.000330094
0.00222175
-0.000113802
0.00222382
-4.93298e-05
0.00222545
-2.42674e-05
0.00222637
-1.05421e-05
0.00222631
-7.85328e-07
0.0022249
8.47784e-06
0.00222068
2.32286e-05
0.00220803
5.69348e-05
0.00214606
0.000164753
0.00189638
0.000466395
0.00146682
0.000787166
0.00090294
0.00103567
0.00194698
-0.00148828
0.00682074
-0.00235921
0.00242331
-0.00312918
0.00221651
-0.0037134
0.00184937
-0.00418407
0.00152941
-0.00455556
0.00121236
-0.00482968
0.000884127
-0.0050032
0.000532783
-0.00506971
0.000146966
-0.00502009
-0.000281843
-0.00484357
-0.0007573
-0.00453266
-0.00128269
-0.00411817
-0.00184874
-0.00372081
-0.00236235
-0.0033005
-0.00258194
-0.00236904
-0.0025127
-0.00127485
-0.00257219
-0.00288185
0.00115024
-0.00237328
0.00165351
-0.00169145
0.00195177
-0.00120324
0.00214458
-0.000784548
0.00217486
-0.000360368
0.00206121
0.00201203
0.00198792
0.00197753
0.0019769
0.00198553
0.00200892
0.00206601
0.00223091
0.00187266
0.000824651
0.00142497
0.00123486
0.000805078
0.00165556
0.00277808
-0.0011061
0.00825805
-0.00192808
0.00324528
-0.00257013
0.00285856
-0.00303046
0.00230971
-0.00339798
0.00189693
-0.00368675
0.00150113
-0.0038998
0.00109717
-0.00403529
0.000668275
-0.00408572
0.000197396
-0.00403789
-0.000329681
-0.00387947
-0.000915721
-0.00360632
-0.00155583
-0.00324104
-0.00221402
-0.00281946
-0.00278393
-0.0022804
-0.003121
-0.00156102
-0.00323208
-0.000873061
-0.00326015
-0.000694025
-0.00306089
0.00144276
-0.00212134
0.00137572
-0.00230625
0.00169167
-0.0020074
0.00200435
-0.00151592
0.00227062
-0.00105082
0.00254658
-0.000636324
0.00286146
-0.000315037
0.00302937
-0.000168058
0.00309473
-6.55158e-05
0.0030781
1.6477e-05
0.00298831
8.9634e-05
0.00282645
0.000161706
0.00258481
0.000241491
0.00224052
0.000344133
0.00173634
0.000504029
0.00160051
0.000960476
0.00127388
0.00156148
0.000747966
0.00218147
0.00356035
-0.00080382
0.00945506
-0.00158005
0.00402151
-0.00204875
0.00332726
-0.00236447
0.00262544
-0.00260881
0.00214127
-0.00279428
0.0016866
-0.00292592
0.00122881
-0.00300447
0.000746824
-0.0030234
0.000216329
-0.00296612
-0.000386961
-0.00281938
-0.00106247
-0.00257622
-0.00179899
-0.00224324
-0.00254701
-0.00182751
-0.00319965
-0.00132285
-0.00362566
-0.000746795
-0.00380813
-0.000215803
-0.00379114
0.000261547
-0.00353824
0.00112308
-0.00298287
0.00148954
-0.00267271
0.00174883
-0.00226669
0.00200151
-0.0017686
0.00223155
-0.00128086
0.00244606
-0.000850834
0.00264778
-0.000516754
0.0027586
-0.000278874
0.00279551
-0.000102432
0.00277023
4.17608e-05
0.00268917
0.000170688
0.00255491
0.000295967
0.00236638
0.000430023
0.00212139
0.000589123
0.00182822
0.000797201
0.00162411
0.00116458
0.00148516
0.00170044
0.00130991
0.00235673
0.00230075
0.00256951
0.00133097
0.0010047
0.00187132
-0.00051149
0.00199038
-0.000575903
0.0104774
-0.00132489
0.0047705
-0.0015846
0.00358697
-0.00175056
0.0027914
-0.00186453
0.00225524
-0.00193596
0.00175803
-0.00197131
0.00126416
-0.00197492
0.00075043
-0.00194358
0.000184989
-0.00185567
-0.000474869
-0.00170146
-0.00121668
-0.00147105
-0.00202939
-0.00116737
-0.00285069
-0.00079618
-0.00357084
-0.000377357
-0.00404448
6.2388e-05
-0.00424787
0.000467499
-0.00419625
0.000842108
-0.00391285
0.00129359
-0.00343435
0.00159297
-0.00297209
0.00179676
-0.00247049
0.00196865
-0.00194049
0.00212077
-0.00143298
0.00225581
-0.000985875
0.00236136
-0.000622303
0.00242031
-0.000337828
0.00243214
-0.00011426
0.00240196
7.19403e-05
0.00233456
0.000238084
0.00223383
0.000396706
0.00210396
0.000559893
0.00195228
0.000740795
0.00179369
0.000955797
0.00170479
0.00125347
0.00176512
0.00164011
0.0019808
0.00214105
0.00222738
0.00232293
0.00173766
0.00149443
0.000816909
0.000409259
0.00290489
-0.000543495
0.0115131
-0.00124379
0.00547079
-0.00119223
0.00353541
-0.00120066
0.00279982
-0.00119301
0.00224759
-0.00115948
0.0017245
-0.00110224
0.00120693
-0.00102705
0.000675241
-0.000928302
8.62378e-05
-0.000779216
-0.000623956
-0.000590125
-0.00140577
-0.000350664
-0.00226885
-6.79742e-05
-0.00313338
0.000235551
-0.00387436
0.000544443
-0.00435337
0.000838925
-0.00454235
0.00110169
-0.00445901
0.00133528
-0.00414644
0.0015676
-0.00366666
0.00172792
-0.00313241
0.00182849
-0.00257105
0.0018992
-0.00201121
0.00195578
-0.00148955
0.00200336
-0.00103346
0.00203664
-0.000655578
0.00204972
-0.000350915
0.00203901
-0.000103548
0.00200511
0.000105843
0.00195104
0.000292156
0.00188061
0.000467139
0.00179916
0.00064134
0.00171556
0.00082439
0.00164548
0.00102589
0.00163303
0.00126592
0.00172405
0.00154909
0.00194078
0.00192432
0.00220021
0.00206349
0.00221273
0.00148191
0.0016531
0.000968893
0.00466114
-0.000483667
0.0125322
-0.00105171
0.00603883
-0.000697767
0.00318147
-0.000637032
0.00273909
-0.000568676
0.00217923
-0.000463893
0.00161972
-0.000334658
0.00107769
-0.000183121
0.000523704
6.53306e-06
-0.000103416
0.000224953
-0.000842375
0.000464602
-0.00164542
0.00072165
-0.0025259
0.000977399
-0.00338912
0.00120463
-0.00410159
0.00140278
-0.00455151
0.00156322
-0.00470279
0.0016808
-0.00457658
0.00176027
-0.00422591
0.00181395
-0.00372034
0.00182486
-0.00314332
0.00180111
-0.00254731
0.00176165
-0.00197175
0.00172134
-0.00144925
0.00168759
-0.000999719
0.00166025
-0.00062823
0.00163515
-0.000325817
0.00160725
-7.56489e-05
0.00157416
0.000138933
0.00153602
0.000330295
0.00149416
0.000508998
0.00145185
0.000683649
0.00141565
0.000860591
0.00139732
0.00104422
0.00142197
0.00124126
0.00152053
0.00145054
0.00174572
0.00169913
0.0020527
0.00175652
0.00217732
0.00135729
0.00168602
0.00146019
0.00671541
0.00297722
0.0101421
0.00202183
0.00699423
0.000868808
0.00433448
0.000370365
0.00323753
0.000213406
0.00233619
0.000269899
0.00156322
0.0004241
0.00092349
0.000638417
0.000309387
0.000898108
-0.000363106
0.00116333
-0.0011076
0.00144178
-0.00192386
0.00170813
-0.00279225
0.00193303
-0.00361402
0.00209248
-0.00426103
0.00218099
-0.00464001
0.0022015
-0.0047233
0.00216302
-0.0045381
0.00207924
-0.00414212
0.00196532
-0.00360642
0.00182679
-0.00300479
0.00167574
-0.00239626
0.00152906
-0.00182506
0.00140133
-0.00132151
0.00130065
-0.000899037
0.00122796
-0.000555544
0.0011781
-0.000275954
0.00114352
-4.10694e-05
0.00111874
0.000163712
0.00110014
0.000348897
0.00108541
0.00052372
0.00107451
0.00069455
0.00107017
0.000864934
0.00107887
0.00103552
0.00111518
0.00120495
0.00120221
0.00136351
0.00139574
0.00150559
0.00170435
0.00144791
0.00184003
0.0012216
0.000511754
0.00278845
0.00761291
0.00403185
0.00625054
0.00366811
0.00735796
0.00254265
0.00545994
0.00188941
0.00389077
0.00153286
0.00269274
0.00138809
0.00170799
0.00142211
0.000889468
0.00159693
0.000134576
0.0018494
-0.000615585
0.00212682
-0.00138501
0.00240635
-0.0022034
0.00265051
-0.00303642
0.0028177
-0.00378121
0.00288121
-0.00432454
0.00283815
-0.00459695
0.00270266
-0.00458779
0.0024972
-0.00433263
0.00224614
-0.00389106
0.00197224
-0.00333251
0.00169263
-0.00272518
0.00142457
-0.0021282
0.0011861
-0.00158659
0.000991893
-0.00112731
0.000848092
-0.000755237
0.000753016
-0.000460468
0.000697194
-0.000220132
0.000669302
-1.31778e-05
0.000660303
0.000172712
0.000663119
0.000346081
0.00067274
0.000514098
0.000686208
0.000681083
0.00070171
0.000849432
0.000717958
0.00101927
0.00073488
0.00118803
0.000749824
0.00134856
0.000738356
0.00151706
0.000342724
0.00184352
-0.000991598
0.00255565
-0.00222259
0.0040193
0.00549515
0.00241006
0.004005
0.00330544
0.00646259
0.00324947
0.00551591
0.00303867
0.00410157
0.00284772
0.00288369
0.00272464
0.00183106
0.00271106
0.00090305
0.00280048
4.51514e-05
0.00296295
-0.000778048
0.00317386
-0.00159593
0.00339106
-0.0024206
0.00355436
-0.00319972
0.00360915
-0.003836
0.00352907
-0.00424447
0.00331989
-0.00438777
0.00300801
-0.0042759
0.00262797
-0.00395259
0.00221326
-0.00347635
0.00179355
-0.00291279
0.00139273
-0.00232436
0.0010326
-0.00176806
0.00073331
-0.0012873
0.000508655
-0.000902655
0.000356884
-0.000603466
0.0002682
-0.000371783
0.000225298
-0.000177229
0.000213517
-1.39658e-06
0.000222215
0.000164014
0.000243816
0.00032448
0.00027321
0.000484704
0.000306093
0.0006482
0.000336832
0.000818693
0.000356279
0.000999821
0.000350357
0.00119395
0.000291988
0.00140693
9.02653e-05
0.0017188
-0.000556708
0.00249047
-0.00151518
0.00351393
-0.00175508
0.00425901
0.00385757
0.00145734
0.00274192
0.002749
0.00517093
0.00343313
0.00483178
0.00371914
0.00381556
0.00381768
0.00278515
0.00384607
0.00180267
0.00388285
0.000866268
0.00395291
-2.4903e-05
0.00406372
-0.000888865
0.00420423
-0.00173644
0.00432267
-0.00253904
0.00434829
-0.00322536
0.0042298
-0.00371751
0.00395528
-0.00396996
0.00354742
-0.00397991
0.00304618
-0.00377466
0.00249555
-0.00340197
0.00193439
-0.00291518
0.00139699
-0.00237539
0.000911012
-0.00183838
0.000503929
-0.00136098
0.000195518
-0.000978886
-9.21001e-06
-0.000697927
-0.000127917
-0.000484758
-0.000186915
-0.000312784
-0.000208476
-0.000155668
-0.000205266
-4.60526e-06
-0.000184604
0.000143351
-0.000150887
0.000290763
-0.000107159
0.000440976
-5.71814e-05
0.000598223
-7.79786e-06
0.000769309
2.77548e-05
0.000964268
2.42266e-05
0.00119748
-6.84672e-05
0.00149963
-0.000338585
0.00198901
-0.000916854
0.00306902
-0.00187793
0.00447511
-0.00208563
0.00446671
0.0019036
0.0021744
0.000793505
0.00294459
0.00440073
0.00359413
0.00418223
0.00416403
0.00324566
0.00449172
0.00245746
0.00466632
0.00162808
0.00478386
0.000748724
0.00488991
-0.000130953
0.00499771
-0.000996662
0.00507654
-0.00181528
0.00506053
-0.00252304
0.00488969
-0.00305453
0.00454187
-0.0033697
0.00403616
-0.00346426
0.00341752
-0.00336128
0.00273677
-0.00309391
0.00204254
-0.00270773
0.00137307
-0.00224571
0.000767781
-0.0017701
0.000255279
-0.00132587
-0.000125328
-0.000980372
-0.000369432
-0.000734782
-0.00050633
-0.000561027
-0.000574679
-0.000416408
-0.000604444
-0.000283017
-0.000609735
-0.000150376
-0.000597655
-1.66842e-05
-0.000571214
0.000116911
-0.000531081
0.00025063
-0.000477523
0.000387418
-0.000412127
0.000532826
-0.000339447
0.000696628
-0.000269757
0.000894576
-0.000225351
0.00115307
-0.000246313
0.00152059
-0.000363372
0.00210618
-0.000465968
0.00317205
-0.000733925
0.00474347
-0.000946015
0.00467921
0.00110218
-0.00158061
0.00261927
0.00111732
0.0017028
0.00334976
0.00194979
0.00435222
0.0022432
0.00485612
0.00195356
0.00517123
0.00131297
0.00540061
0.000519349
0.0055804
-0.000310738
0.00568123
-0.00109749
0.00564054
-0.0017746
0.00540745
-0.00228996
0.00497048
-0.00261757
0.00435768
-0.00275692
0.00362183
-0.00272842
0.00282277
-0.00256224
0.00201028
-0.00228142
0.00123274
-0.0019302
0.000521445
-0.00153441
-7.21616e-05
-0.0011765
-0.00050263
-0.000895409
-0.000766519
-0.000716486
-0.000912173
-0.000589129
-0.000987771
-0.000485424
-0.00102065
-0.000383522
-0.00102857
-0.000275087
-0.00102074
-0.000158206
-0.00100175
-3.56764e-05
-0.000972181
8.73459e-05
-0.000929563
0.000208011
-0.000870833
0.000328687
-0.00079408
0.000456073
-0.000699425
0.000601972
-0.000591201
0.000786348
-0.000480841
0.00104269
-0.000379554
0.00141926
-0.000252197
0.0019788
7.42222e-05
0.00284583
0.000644697
0.00417338
0.00104911
0.00427519
0.00230165
0.00288102
0.00456863
0.00486925
0.00164917
0.00535568
0.00175677
0.0055921
0.00171715
0.00582402
0.00108105
0.00601269
0.000330691
0.00608034
-0.000378381
0.00595538
-0.000972526
0.0056045
-0.00142372
0.00504036
-0.00172584
0.00430987
-0.0018871
0.00347114
-0.00191821
0.00258218
-0.00183948
0.00169732
-0.0016774
0.000848966
-0.00143307
7.96478e-05
-0.00116089
-0.000547314
-0.000907458
-0.000986117
-0.000737708
-0.00125368
-0.000627859
-0.00140846
-0.000561705
-0.00149006
-0.000507519
-0.0015276
-0.00044787
-0.00153693
-0.000374175
-0.00152786
-0.000284141
-0.00150711
-0.000178946
-0.00147979
-6.29998e-05
-0.00144791
5.54633e-05
-0.001408
0.000168103
-0.00135433
0.000275009
-0.00128238
0.00038412
-0.00118905
0.000508651
-0.00107237
0.00066966
-0.000927884
0.000898146
-0.000736135
0.00122736
-0.00042752
0.00166994
0.000161338
0.00225682
0.00112355
0.00321126
0.00159235
0.00380656
0.00405412
0.00793081
0.00536674
0.00581016
0.00387743
0.0055618
0.00196554
0.0056343
0.00100859
0.00559984
0.000365191
0.00535702
-0.000135523
0.00489506
-0.000510558
0.00425468
-0.000783341
0.00348923
-0.000960399
0.00265116
-0.00104906
0.0017812
-0.00104827
0.000914886
-0.000973185
8.61426e-05
-0.000848671
-0.000645215
-0.00070173
-0.00121809
-0.000588037
-0.0016167
-0.000508874
-0.00187758
-0.00047686
-0.00203536
-0.000470088
-0.00212878
-0.000468277
-0.0021803
-0.00045596
-0.0022023
-0.000425832
-0.00220181
-0.000374607
-0.00218442
-0.000301497
-0.00215555
-0.000207795
-0.00212116
-9.74101e-05
-0.00208735
2.16266e-05
-0.00205482
0.000135549
-0.00201904
0.000239215
-0.001975
0.000340088
-0.0019168
0.000450493
-0.00183359
0.000586495
-0.0017021
0.00076663
-0.0014821
0.00100718
-0.00111067
0.00129814
-0.000424066
0.00156972
0.000872468
0.0019144
0.00148117
0.00319758
0.00570398
0.00409766
0.00151567
0.00449889
0.00347623
0.00373022
0.00273424
0.00323071
0.00150816
0.00288856
0.000707387
0.00252377
0.000229289
0.00207774
-6.45191e-05
0.00154055
-0.000246157
0.000929972
-0.000349835
0.00026206
-0.000381163
-0.000427265
-0.000358965
-0.00108167
-0.0003188
-0.001649
-0.000281373
-0.00209398
-0.000256788
-0.00241936
-0.000262706
-0.00263805
-0.000290223
-0.00278473
-0.000330202
-0.00288558
-0.000369232
-0.00295581
-0.000397998
-0.00300144
-0.000410251
-0.00302509
-0.000402082
-0.00302885
-0.000370755
-0.00301548
-0.0003148
-0.00298865
-0.000234615
-0.00295286
-0.000133251
-0.00291394
-1.73923e-05
-0.00287944
0.000100955
-0.0028514
0.000211115
-0.00282468
0.000313369
-0.00279425
0.000420165
-0.00275348
0.000545894
-0.00268744
0.000700767
-0.00256527
0.000885082
-0.00235208
0.0010848
-0.00205818
0.00127541
-0.0017382
0.00159382
-0.00136023
0.00281898
0.00452742
-0.00261949
-0.00679047
-0.00742871
-0.00747415
-0.00375551
-0.00215757
-0.0016797
0.00140045
-0.000765903
0.0018205
-0.000565732
0.00130804
-0.000643175
0.000784871
-0.000824155
0.000410298
-0.00105829
0.000169641
-0.00134099
3.65486e-05
-0.00167472
-1.60994e-05
-0.00203843
-1.74648e-05
-0.0024042
6.78345e-06
-0.00274864
2.55989e-05
-0.00304657
1.65022e-05
-0.00327767
-2.57554e-05
-0.00344324
-9.72016e-05
-0.00356267
-0.000170825
-0.00365728
-0.000235585
-0.00373676
-0.000289693
-0.00380279
-0.00033186
-0.00385377
-0.00035913
-0.00388818
-0.000367504
-0.00390594
-0.000352865
-0.00390852
-0.000312145
-0.00389856
-0.000244592
-0.00387904
-0.000152884
-0.00385193
-4.47088e-05
-0.00381801
6.68182e-05
-0.00377127
0.000164197
-0.00370931
0.000251321
-0.00362917
0.000340063
-0.00352742
0.000444322
-0.0034014
0.000575021
-0.00324375
0.00072774
-0.00305372
0.000895042
-0.00300071
0.00122261
-0.00355358
0.00214678
-0.00369606
0.00296134
0.0010265
-0.00736768
0.001031
-0.00813874
-0.00670308
-0.00718727
-0.00310901
-0.00566429
-0.000122497
-0.00457205
0.00072832
-0.00398217
0.000718225
-0.00372513
0.000527895
-0.00365986
0.000345092
-0.0037016
0.000211423
-0.00379392
0.000128899
-0.0038962
8.61815e-05
-0.00398514
7.14568e-05
-0.00404841
7.00025e-05
-0.00408767
6.47814e-05
-0.00411868
4.74241e-05
-0.00415474
1.02207e-05
-0.00420302
-4.89661e-05
-0.00426311
-0.000110735
-0.00433322
-0.000165418
-0.00441115
-0.000211648
-0.00449422
-0.000248615
-0.0045793
-0.000273843
-0.00466256
-0.00028406
-0.00473894
-0.000276336
-0.00480217
-0.000248866
-0.00484535
-0.000201485
-0.00486227
-0.000136158
-0.00484986
-5.74024e-05
-0.0048068
2.34145e-05
-0.00472859
8.5687e-05
-0.00461111
0.000133621
-0.00444771
0.000176564
-0.0042283
0.000224945
-0.00394013
0.000286999
-0.00357382
0.000361682
-0.00310544
0.00042695
-0.00231612
0.000433562
-0.000466765
0.00029769
0.00146547
0.00102927
0.00268498
0.00157297
-0.00506519
-0.00811075
-0.00817359
-0.00739074
-0.00662581
-0.00605796
-0.00567775
-0.00543431
-0.00527512
-0.00515928
-0.005058
-0.00495748
-0.00486132
-0.00478178
-0.00473897
-0.00475514
-0.0048331
-0.00496594
-0.00514546
-0.00536262
-0.0056059
-0.00586045
-0.00610832
-0.00632968
-0.0065044
-0.00661432
-0.00664578
-0.00659659
-0.00648523
-0.00632609
-0.00612432
-0.0058747
-0.00556382
-0.00517929
-0.00473072
-0.00427686
-0.00396022
-0.00291339
)
;

boundaryField
{
    floor
    {
        type            calculated;
        value           nonuniform List<scalar> 
36
(
0
0
0
0
0
0
0
0
0
0
0
0
0
0
0
0
0
0
0
-6.43863e-06
-1.68827e-05
-2.60288e-05
-3.42979e-05
-3.49247e-05
-2.88588e-05
-2.86849e-05
-2.91999e-06
-5.44107e-06
-5.68735e-06
-5.90752e-06
-4.85412e-06
-8.93805e-06
-1.0211e-05
-1.28322e-05
-1.44574e-05
-1.54457e-05
)
;
    }
    ceiling
    {
        type            calculated;
        value           nonuniform List<scalar> 
43
(
-5.79389e-05
-6.48916e-05
-6.339e-05
-5.95805e-05
-5.44373e-05
-4.65918e-05
-3.98555e-05
-3.50368e-05
-3.19608e-05
-3.0281e-05
-2.96796e-05
-2.98848e-05
-3.06004e-05
-3.14746e-05
-3.22e-05
-3.26491e-05
-3.28097e-05
-3.27533e-05
-3.2488e-05
-3.19959e-05
-3.12765e-05
-3.03704e-05
-2.93669e-05
-2.83856e-05
-2.75391e-05
-2.68964e-05
-2.64693e-05
-2.62201e-05
-2.60783e-05
-2.59498e-05
-2.57301e-05
-2.53347e-05
-2.47135e-05
-2.38491e-05
-2.27558e-05
-2.14857e-05
-2.0126e-05
-1.87529e-05
-1.73263e-05
-1.58626e-05
1.9334e-05
1.51876e-05
-0.000246597
)
;
    }
    sWall
    {
        type            calculated;
        value           nonuniform List<scalar> 9(-0.000140236 -0.000164525 -0.000194262 -0.000225982 -0.00024515 -0.000281083 -0.000423758 -0.000453801 -0.000484049);
    }
    nWall
    {
        type            calculated;
        value           nonuniform List<scalar> 
14
(
-9.03732e-05
-9.75886e-05
-0.000103146
-0.000104814
-0.000117496
-0.00013167
-0.000144275
-0.000150102
-0.000160083
-0.000168988
-0.000184067
-0.000195539
-0.000192711
-0.000212274
)
;
    }
    sideWalls
    {
        type            empty;
        value           nonuniform 0();
    }
    glass1
    {
        type            calculated;
        value           nonuniform List<scalar> 9(-6.40342e-05 -0.000170321 -0.000257922 -0.000331204 -0.000393187 -0.000446391 -0.000492203 -0.000535485 -0.000587167);
    }
    glass2
    {
        type            calculated;
        value           nonuniform List<scalar> 2(-0.000368232 -0.000385689);
    }
    sun
    {
        type            calculated;
        value           uniform 0;
    }
    Table_master
    {
        type            calculated;
        value           nonuniform List<scalar> 9(-1.53993e-07 -1.5411e-07 -1.54142e-07 -1.54162e-07 -1.54175e-07 -1.5418e-07 -1.54178e-07 -1.54164e-07 -1.5411e-07);
    }
    Table_slave
    {
        type            calculated;
        value           nonuniform List<scalar> 9(1.53662e-07 1.53718e-07 1.53717e-07 1.53734e-07 1.53754e-07 1.53798e-07 1.53865e-07 1.53959e-07 1.54086e-07);
    }
    inlet
    {
        type            calculated;
        value           uniform -0.0116484;
    }
    outlet
    {
        type            calculated;
        value           nonuniform List<scalar> 2(0.00983369 0.0122834);
    }
}


// ************************************************************************* //
