/*--------------------------------*- C++ -*----------------------------------*\
  =========                 |
  \\      /  F ield         | OpenFOAM: The Open Source CFD Toolbox
   \\    /   O peration     | Website:  https://openfoam.org
    \\  /    A nd           | Version:  6
     \\/     M anipulation  |
\*---------------------------------------------------------------------------*/
FoamFile
{
    version     2.0;
    format      ascii;
    class       volScalarField;
    location    "4700";
    object      epsilon;
}
// * * * * * * * * * * * * * * * * * * * * * * * * * * * * * * * * * * * * * //

dimensions      [0 2 -3 0 0 0 0];

internalField   nonuniform List<scalar> 
778
(
0.00020911
0.000248163
0.000662837
0.000246892
0.00128468
0.00137223
0.000279077
0.000231644
0.00369004
0.00244727
0.00031004
0.000212181
0.000320882
0.00811326
0.00398617
0.000339398
0.000212251
0.000198269
0.00056264
0.0150062
0.00606014
0.000367691
0.000215429
0.00018715
0.000193559
0.00110672
0.0241015
0.00884128
0.000395765
0.000221222
0.000187696
0.000165843
0.000202184
0.00220448
0.0330811
0.0119594
0.000424755
0.000230986
0.0001923
0.000163618
0.000142663
0.000244597
0.00416132
0.0399911
0.0131258
0.000456281
0.000246493
0.000200671
0.000164788
0.000136243
0.000123953
0.000362573
0.00708869
0.0417393
0.0125157
0.000489583
0.00027004
0.000213008
0.000167859
0.000134128
0.000111277
0.000116851
0.000713966
0.0136108
0.0286287
0.0104546
0.000524374
0.000301938
0.000229734
0.000173214
0.000133368
0.000106265
9.31431e-05
0.000146052
0.00286183
0.014337
0.0195336
0.00799284
0.000562857
0.000344412
0.000251826
0.000182298
0.000134888
0.000102761
8.52547e-05
8.93977e-05
0.00051508
0.00551718
0.0120492
0.0138535
0.00608077
0.000609395
0.000402025
0.000282051
0.0001973
0.000141024
0.000102205
7.98811e-05
7.57143e-05
0.000161809
0.00194599
0.00620618
0.00972122
0.0101406
0.0060811
0.000664288
0.000484855
0.00032402
0.000220917
0.000154677
0.000108494
7.8844e-05
6.86512e-05
0.000101462
0.00073878
0.00306745
0.00590705
0.00780217
0.00777537
0.00449054
0.000625133
0.00038509
0.000255742
0.000177798
0.000125798
8.95223e-05
6.88915e-05
8.52659e-05
0.000350336
0.00158342
0.00352133
0.00531656
0.00688599
0.00503075
0.000868509
0.000476596
0.000304818
0.000211639
0.000153587
0.000116082
9.44198e-05
9.61492e-05
0.000223791
0.00091019
0.00217437
0.00356259
0.00480872
0.00561352
0.000805855
0.000589264
0.000369339
0.000257428
0.000190424
0.000152817
0.000134875
0.00013872
0.000217514
0.000610034
0.00143814
0.00245355
0.00341286
0.0041576
0.180437
0.000763015
0.000705664
0.00044242
0.000314694
0.000236569
0.000194838
0.000180187
0.000188039
0.000251283
0.000496347
0.00104099
0.00176752
0.00249177
0.00304582
0.0272214
0.00705236
0.00128561
0.000526516
0.000377238
0.000292645
0.00024287
0.000225823
0.000235096
0.000289458
0.000456487
0.000822806
0.00134436
0.00188205
0.00228251
0.00640369
0.00714437
0.00407284
0.00078199
0.000441817
0.000354429
0.000300084
0.00027426
0.000279351
0.000323666
0.000443506
0.000693935
0.00106653
0.0014692
0.00175436
0.00255977
0.00292778
0.00319524
0.0068958
0.00321458
0.00142744
0.00053795
0.000416594
0.000363303
0.00033133
0.000327642
0.000358439
0.000443464
0.000615038
0.000875616
0.00116523
0.00136099
0.00138179
0.00152922
0.0025775
0.00338018
0.00504154
0.00415072
0.00222509
0.000641065
0.000627131
0.000474353
0.000424194
0.000396728
0.00038768
0.000405165
0.000462119
0.000577445
0.000755138
0.000956433
0.00108694
0.000961812
0.00141524
0.00302773
0.0032833
0.00240768
0.00469277
0.00250398
0.00103286
0.000435107
0.000476948
0.000492563
0.000468954
0.000458833
0.00045747
0.000471025
0.000510622
0.000589475
0.000712804
0.000859911
0.000976972
0.000996895
0.00201388
0.003428
0.00325803
0.00262049
0.00441937
0.000579605
0.000481944
0.000359494
0.000401132
0.00044237
0.000477389
0.000499243
0.000521268
0.000548022
0.000588717
0.000654901
0.000755644
0.000889427
0.0010504
0.00131478
0.00271916
0.00357506
0.00302454
0.00257152
0.000239792
0.00037008
0.000359388
0.000311223
0.00034633
0.000389276
0.000444296
0.000501442
0.000556731
0.000612717
0.000675497
0.000755686
0.000866323
0.001024
0.00126684
0.00175372
0.00313914
0.00343425
0.00265553
0.00228093
0.00026236
0.000294775
0.000295513
0.000302616
0.000299118
0.000335232
0.00039107
0.000464156
0.000547939
0.000637958
0.000735966
0.00085009
0.000996045
0.0012002
0.0015238
0.00212611
0.00318085
0.00310348
0.00225994
0.00190075
0.00026793
0.00024517
0.000268031
0.00082307
0.000263691
0.000283595
0.000330164
0.000401463
0.000495735
0.000608817
0.000738721
0.000890461
0.00107781
0.00132991
0.00169857
0.00226984
0.00289148
0.00265567
0.00190027
0.00154357
0.000255623
0.000208234
0.000577164
0.000620564
0.000257974
0.000239163
0.000271281
0.000329309
0.000415729
0.000530706
0.000673634
0.000846609
0.00106002
0.00133318
0.00169979
0.00213695
0.00230659
0.00212804
0.00158931
0.00124697
0.000230745
0.000193656
0.000377743
0.000490544
0.000233364
0.000204931
0.000221003
0.000261002
0.000327661
0.000425085
0.000555572
0.000722124
0.000928831
0.0011857
0.00148817
0.00177698
0.00165198
0.00157659
0.00132337
0.00100848
0.000196625
0.00016181
0.000260657
0.000397144
0.000207343
0.000177637
0.000181836
0.000204527
0.000247786
0.000316753
0.000416107
0.000548327
0.000717046
0.000915704
0.00112808
0.00122509
0.00108561
0.00109807
0.00110322
0.000822066
0.000165048
0.000132013
0.000188493
0.000327736
0.000183979
0.000156147
0.000152879
0.000162215
0.000184799
0.000224661
0.000285768
0.000371555
0.000478594
0.000605217
0.000701364
0.000719624
0.000655775
0.000750522
0.000937004
0.000686141
0.000138712
0.000107355
0.000141903
0.000272884
0.000165154
0.000139095
0.000131897
0.000132496
0.000140133
0.000156901
0.000185332
0.000225647
0.00027941
0.000324003
0.000368239
0.000395965
0.000396204
0.00054118
0.000827569
0.000597748
0.000117296
8.77136e-05
0.000110585
0.000227159
0.000149262
0.000125797
0.000116463
0.000112224
0.000110726
0.000112633
0.000119062
0.000131018
0.000142252
0.000166199
0.00019402
0.000226889
0.000271488
0.000439369
0.000763333
0.000548219
0.000100061
7.22108e-05
8.88381e-05
0.000187088
0.000135244
0.00011498
0.000104951
9.81787e-05
9.2126e-05
8.6123e-05
8.13673e-05
7.86805e-05
8.25779e-05
9.46291e-05
0.000117893
0.000155601
0.000220858
0.000396331
0.000723224
0.000525152
8.60445e-05
5.99224e-05
7.35116e-05
0.00014937
0.000122475
0.000105761
9.59417e-05
8.82722e-05
8.02501e-05
7.10908e-05
6.18597e-05
5.53821e-05
5.5901e-05
6.49737e-05
8.66939e-05
0.000127459
0.00020168
0.000377073
0.0006949
0.000518798
7.45059e-05
5.01375e-05
6.30432e-05
8.95743e-05
0.00011016
9.75582e-05
8.84572e-05
8.08692e-05
7.26184e-05
6.2741e-05
5.23388e-05
4.49707e-05
4.38361e-05
5.13677e-05
7.24412e-05
0.000114746
0.000193153
0.000365397
0.000672082
0.000519998
6.48453e-05
4.26473e-05
4.81271e-05
5.91259e-05
8.97443e-05
8.98028e-05
8.18733e-05
7.48938e-05
6.72827e-05
5.81344e-05
4.8151e-05
4.03093e-05
3.80475e-05
4.40789e-05
6.40092e-05
0.000106982
0.000187894
0.000356014
0.000652565
0.000524962
5.65423e-05
3.81584e-05
4.0933e-05
0.000154713
6.86786e-05
8.00499e-05
7.5734e-05
6.96977e-05
6.3088e-05
5.51575e-05
4.6372e-05
3.87326e-05
3.52882e-05
3.95919e-05
5.7741e-05
0.000100625
0.000183659
0.000348179
0.000636952
0.00053401
4.91144e-05
3.64196e-05
0.000112931
0.000100188
0.000110922
6.91908e-05
6.93491e-05
6.48865e-05
5.94235e-05
5.27785e-05
4.53179e-05
3.84008e-05
3.43567e-05
3.67373e-05
5.24521e-05
9.43955e-05
0.000179588
0.000342405
0.000627271
0.000549224
4.20211e-05
6.99845e-05
7.5346e-05
0.000143947
8.20346e-05
6.33716e-05
6.02296e-05
5.59874e-05
5.05526e-05
4.43171e-05
3.8321e-05
3.42816e-05
3.52321e-05
4.79613e-05
8.77421e-05
0.000174936
0.000338991
0.000625973
0.000573442
3.6375e-05
5.20321e-05
0.000166094
0.000104271
6.70877e-05
5.63846e-05
5.27331e-05
4.83365e-05
4.31326e-05
3.80914e-05
3.4446e-05
3.47781e-05
4.47413e-05
8.07437e-05
0.000168875
0.000337358
0.000635087
0.000609275
2.68915e-05
0.000365869
0.000212699
8.0371e-05
5.83242e-05
5.03985e-05
4.62868e-05
4.17756e-05
3.75773e-05
3.46209e-05
3.49369e-05
4.35276e-05
7.44885e-05
0.000160962
0.000335887
0.000655433
0.000658147
0.000328182
0.00107031
0.000175785
7.24205e-05
5.44277e-05
4.57246e-05
4.06926e-05
3.68853e-05
3.47984e-05
3.57286e-05
4.40774e-05
7.18167e-05
0.000152188
0.000332494
0.000686011
0.000719645
0.00056262
0.00158861
0.000334903
9.75479e-05
5.78703e-05
4.27855e-05
3.67987e-05
3.52417e-05
3.75122e-05
4.70366e-05
7.37738e-05
0.000146535
0.000326388
0.000723765
0.000791537
0.000909552
0.00536451
0.000940199
0.000220837
7.91924e-05
4.30801e-05
3.7114e-05
4.10349e-05
5.4007e-05
8.23144e-05
0.000149469
0.000321394
0.000763902
0.000870616
0.00198135
0.0129852
0.00283569
0.000632167
0.000129184
4.77549e-05
4.8102e-05
6.75152e-05
0.000101894
0.000164264
0.000327104
0.000800469
0.000954091
0.0029927
0.0108943
0.0031382
0.000817724
0.00013208
6.59664e-05
9.14344e-05
0.000139223
0.000198463
0.000347348
0.000832422
0.00104121
0.00312647
0.00795858
0.00295441
0.000682764
0.00013686
0.00013433
0.000203173
0.000264361
0.000389827
0.000870793
0.00113422
0.00299735
0.00629002
0.00244519
0.000519389
0.000227885
0.000307908
0.000379615
0.000468412
0.000929663
0.0012331
0.00275137
0.00605293
0.00204527
0.000528304
0.000490082
0.000570458
0.000604917
0.00102553
0.0013449
0.00272988
0.00475452
0.00201769
0.000874026
0.000884836
0.000833476
0.00117984
0.00148033
0.00331149
0.0037487
0.00217912
0.00142694
0.00121416
0.00142507
0.00165069
0.00345266
0.00387502
0.00242459
0.00186737
0.00181491
0.00186586
0.00352551
0.00413062
0.00297081
0.00243878
0.00212951
0.00309996
0.00465059
0.00345714
0.00243153
0.00297575
0.00408301
0.00275699
0.00402325
0.00316696
0.00327709
)
;

boundaryField
{
    floor
    {
        Cmu             0.09;
        kappa           0.41;
        E               9.8;
        type            epsilonWallFunction;
        value           nonuniform List<scalar> 
36
(
0.000664288
0.000239792
0.00026236
0.00026793
0.000255623
0.000230745
0.000196625
0.000165048
0.000138712
0.000117296
0.000100061
8.60445e-05
7.45059e-05
6.48453e-05
5.65423e-05
4.91144e-05
4.20211e-05
3.6375e-05
2.68915e-05
2.68915e-05
5.20321e-05
7.5346e-05
0.000100188
0.000166094
0.000365869
0.000328182
0.000664288
0.000868509
0.000805855
0.000763015
0.000239792
0.000763015
0.000579605
0.00128561
0.00103286
0.00142744
)
;
    }
    ceiling
    {
        Cmu             0.09;
        kappa           0.41;
        E               9.8;
        type            epsilonWallFunction;
        value           nonuniform List<scalar> 
43
(
0.00441937
0.00250398
0.00222509
0.00240768
0.00262049
0.00257152
0.00228093
0.00190075
0.00154357
0.00124697
0.00100848
0.000822066
0.000686141
0.000597748
0.000548219
0.000525152
0.000518798
0.000519998
0.000524962
0.00053401
0.000549224
0.000573442
0.000609275
0.000658147
0.000719645
0.000791537
0.000870616
0.000954091
0.00104121
0.00113422
0.0012331
0.0013449
0.00148033
0.00165069
0.00186586
0.00212951
0.00243153
0.00275699
0.00316696
0.00327709
0.00449054
0.00503075
0.00705236
)
;
    }
    sWall
    {
        Cmu             0.09;
        kappa           0.41;
        E               9.8;
        type            epsilonWallFunction;
        value           nonuniform List<scalar> 9(0.0125157 0.0104546 0.00799284 0.00608077 0.0060811 0.00449054 0.00504154 0.00469277 0.00441937);
    }
    nWall
    {
        Cmu             0.09;
        kappa           0.41;
        E               9.8;
        type            epsilonWallFunction;
        value           nonuniform List<scalar> 
14
(
0.000328182
0.00056262
0.000909552
0.00312647
0.00299735
0.00275137
0.00272988
0.00331149
0.00345266
0.00352551
0.00309996
0.00297575
0.00402325
0.00327709
)
;
    }
    sideWalls
    {
        type            empty;
    }
    glass1
    {
        Cmu             0.09;
        kappa           0.41;
        E               9.8;
        type            epsilonWallFunction;
        value           nonuniform List<scalar> 9(0.00020911 0.000662837 0.00137223 0.00244727 0.00398617 0.00606014 0.00884128 0.0119594 0.0131258);
    }
    glass2
    {
        Cmu             0.09;
        kappa           0.41;
        E               9.8;
        type            epsilonWallFunction;
        value           nonuniform List<scalar> 2(0.00198135 0.0029927);
    }
    sun
    {
        Cmu             0.09;
        kappa           0.41;
        E               9.8;
        type            epsilonWallFunction;
        value           nonuniform List<scalar> 
14
(
0.00020911
0.000248163
0.000246892
0.000279077
0.00031004
0.000339398
0.000367691
0.000395765
0.000424755
0.000456281
0.000489583
0.000524374
0.000562857
0.000609395
)
;
    }
    Table_master
    {
        Cmu             0.09;
        kappa           0.41;
        E               9.8;
        type            epsilonWallFunction;
        value           nonuniform List<scalar> 9(0.000577164 0.000377743 0.000260657 0.000188493 0.000141903 0.000110585 8.88381e-05 7.35116e-05 6.30432e-05);
    }
    Table_slave
    {
        Cmu             0.09;
        kappa           0.41;
        E               9.8;
        type            epsilonWallFunction;
        value           nonuniform List<scalar> 9(0.00082307 0.000620564 0.000490544 0.000397144 0.000327736 0.000272884 0.000227159 0.000187088 0.00014937);
    }
    inlet
    {
        type            turbulentMixingLengthDissipationRateInlet;
        mixingLength    0.00315;
        phi             phi;
        k               k;
        value           uniform 1.49737;
    }
    outlet
    {
        type            zeroGradient;
    }
}


// ************************************************************************* //
