/*--------------------------------*- C++ -*----------------------------------*\
  =========                 |
  \\      /  F ield         | OpenFOAM: The Open Source CFD Toolbox
   \\    /   O peration     | Website:  https://openfoam.org
    \\  /    A nd           | Version:  6
     \\/     M anipulation  |
\*---------------------------------------------------------------------------*/
FoamFile
{
    version     2.0;
    format      ascii;
    class       surfaceScalarField;
    location    "4700";
    object      phi;
}
// * * * * * * * * * * * * * * * * * * * * * * * * * * * * * * * * * * * * * //

dimensions      [1 0 -1 0 0 0 0];

internalField   nonuniform List<scalar> 
1482
(
-0.00278646
0.00285187
-0.00343261
0.00064615
-0.00206532
0.00509168
-0.00411518
0.000682567
-0.00294685
0.00152768
-0.00151838
0.00687449
-0.00476089
0.000645716
-0.00378067
0.00151638
-0.00240939
0.00241869
-0.0011314
0.00834517
-0.00532109
0.0005602
-0.00448142
0.00134647
-0.00322305
0.00233004
-0.00196946
0.00325674
-0.000823395
0.00957059
-0.00577634
0.000455252
-0.00507111
0.00114989
-0.00384937
0.00197279
-0.00263537
0.00299596
-0.00161196
0.00404531
-0.000587965
0.0106139
-0.00611338
0.000337034
-0.00555366
0.0009378
-0.00436047
0.00166099
-0.00311938
0.0024568
-0.00208096
0.00346495
-0.00134754
0.00480489
-0.000546888
0.0116617
-0.00631778
0.000204399
-0.00592566
0.000709033
-0.00477018
0.00134752
-0.00351002
0.00205162
-0.00240151
0.00277736
-0.00158687
0.00370427
-0.00126028
0.00551828
-0.000524711
0.0127295
-0.00637117
5.33926e-05
-0.00617928
0.000458022
-0.00508102
0.00101987
-0.00381964
0.00165714
-0.00265296
0.00230307
-0.0017452
0.00293569
-0.00117258
0.00361658
-0.00109866
0.00609223
0.0029191
0.0104048
-0.00624708
-0.000124085
-0.00630368
0.000177795
-0.00529125
0.000668252
-0.00405274
0.00125298
-0.00284368
0.00184786
-0.00185552
0.0024134
-0.0011678
0.00293091
-0.000688987
0.0032069
0.00194012
0.00707121
0.00407648
0.00647056
-0.00591148
-0.000335599
-0.00629093
-0.000136833
-0.0053968
0.00028334
-0.00421039
0.0008259
-0.00297918
0.00138847
-0.00192263
0.00191497
-0.00115065
0.00239624
-0.000602341
0.00284427
0.000811675
0.00433535
0.00367169
0.00747599
0.00248728
0.00414942
-0.00532604
-0.000585444
-0.00613764
-0.000488893
-0.00539206
-0.000141572
-0.00428914
0.000362093
-0.00306306
0.000909778
-0.00195214
0.00141798
-0.00111004
0.00187436
-0.000515274
0.00230918
0.000360026
0.00329591
0.00251329
0.00549374
0.00336779
0.00659548
0.00154187
0.00280313
-0.00440215
-0.000923893
-0.00582756
-0.000895523
-0.00526755
-0.000613403
-0.00428046
-0.000150256
-0.00309466
0.000393696
-0.0019494
0.000907038
-0.00104742
0.00135536
-0.000401323
0.00176041
0.000240062
0.00242914
0.00186962
0.00393959
0.00328161
0.00557992
0.00285068
0.00528666
0.00224481
0.000785692
-0.00284116
-0.00156098
-0.00534319
-0.00140827
-0.00501348
-0.00114959
-0.00417579
-0.000718079
-0.00306556
-0.000179355
-0.0019178
0.000362095
-0.000966713
0.000826332
-0.000272263
0.0012263
0.000317622
0.00168285
0.00152958
0.00276918
0.00305954
0.00416166
0.00352049
0.00491011
0.00306463
0.00446684
-0.00154782
0.00258073
-0.00283795
-0.00486561
-0.00203856
-0.00465609
-0.00176566
-0.00397415
-0.00135123
-0.00296918
-0.000814462
-0.00184739
-0.000249767
-0.000868512
0.000263894
-0.000132927
0.000686996
0.000473988
0.00106993
0.0013991
0.00181333
0.00286517
0.00296355
0.00379505
0.0038871
0.00371979
0.00425494
0.0011927
0.00172633
0.00284508
-0.00538457
-0.00231899
-0.00432062
-0.00237403
-0.00369578
-0.00204403
-0.00280334
-0.00151707
-0.00173669
-0.000925156
-0.000733385
-0.000384895
4.11182e-05
8.98489e-05
0.000670591
0.000490393
0.00143943
0.00102961
0.00274071
0.00193778
0.00388707
0.00287153
0.00428833
0.00331856
0.00346209
0.00198555
0.00455673
-0.00361815
-0.00176041
-0.00394074
-0.00269887
-0.00336455
-0.00270527
-0.00256604
-0.00228134
-0.00157773
-0.00167604
-0.000578198
-0.00108034
0.000246906
-0.000590682
0.000906906
-0.000146466
0.00161183
0.000317991
0.00272775
0.00104257
0.00391154
0.00191331
0.00461539
0.00254447
0.00448983
0.00229082
0.0049021
0.00164017
-0.00186017
-0.00175179
-0.00293991
-0.00276124
-0.00288052
-0.0031829
-0.00224186
-0.00302944
-0.00135832
-0.00250075
-0.000389323
-0.00186491
0.000466692
-0.00130013
0.00115665
-0.000840426
0.00185612
-0.000390751
0.00282181
0.00022393
0.00394805
0.00100607
0.00478937
0.00173933
0.00500758
0.00202672
0.00546662
0.00172631
0.00829196
0.00501654
-0.00184427
-0.00168957
-0.00300214
-0.00217389
-0.00346787
-0.00179396
-0.0036308
-0.00106248
-0.00332528
-0.000158325
-0.00273175
0.000706885
-0.00210511
0.00142943
-0.00157291
0.002121
-0.00110531
0.00298486
-0.000553802
0.00402038
0.000151602
0.00490601
0.000889433
0.00532952
0.0014174
0.00575273
0.00174061
0.00621212
0.00380616
0.00340837
0.00176652
-0.00351978
-0.00151238
-0.00366364
-0.00125203
-0.00400981
-0.000689081
-0.00400419
0.000109351
-0.00359295
0.000958943
-0.0029838
0.00170963
-0.00238531
0.00240592
-0.00185783
0.00319575
-0.00131619
0.00413216
-0.000665587
0.00501078
4.68268e-05
0.00556346
0.000655497
0.00601771
0.00115242
0.00600895
0.0019438
0.00412957
0.00308498
-0.0040558
0.00807136
-0.00224908
-0.00157685
-0.00345532
-0.000759663
-0.00415601
-0.000276662
-0.00442223
0.000398868
-0.0042937
0.00119784
-0.00383185
0.00197172
-0.00324589
0.00268898
-0.00266837
0.00343769
-0.00209977
0.00428746
-0.0014715
0.00513128
-0.000786087
0.00576343
-0.000153151
0.00626699
0.000406217
0.00620099
0.000960429
0.00372592
0.00234749
-0.00196271
0.000991926
0.00236652
-0.00730011
-0.00721897
0.00825979
-0.00328989
0.000814757
-0.00237509
-0.000268708
-0.00394627
0.000116962
-0.00454963
0.000688339
-0.00471169
0.00140775
-0.00450361
0.00218301
-0.00404313
0.00292835
-0.00348526
0.0036694
-0.00290008
0.00446174
-0.00227406
0.00526284
-0.00160306
0.00593333
-0.000955989
0.00646437
-0.000350522
0.00632868
0.000278589
0.00340079
0.00128562
-0.00111226
0.00149709
-0.0059035
-0.00032351
-0.00658862
0.0073786
-0.00641892
-0.00775999
0.00453266
0.00240915
0.000973705
-0.0025681
0.000713718
-0.00335752
0.000523473
-0.00435278
0.000953367
-0.00481465
0.0015833
-0.00488723
0.00232084
-0.00464143
0.00307887
-0.00419364
0.00382874
-0.0036446
0.00459278
-0.00303113
0.0053542
-0.00236543
0.00602052
-0.00169026
0.00651481
-0.00100643
0.00623437
-0.000256176
0.00307797
0.000601457
-0.000977964
0.00115138
-0.0049608
0.000554465
-0.00802403
0.00127175
-0.00182407
0.00157421
0.000850077
0.00174534
0.00142469
-0.00219633
0.00117792
-0.0030323
0.00104991
-0.00388396
0.00121046
-0.00460987
0.00171584
-0.00494718
0.0023793
-0.00494568
0.00311305
-0.00467559
0.00386028
-0.00422519
0.00460527
-0.0036571
0.00532649
-0.00300344
0.00594734
-0.00229227
0.0063338
-0.00150926
0.00584052
-0.000612559
0.00265352
0.000168292
-0.00109769
0.000721233
-0.00443561
0.000626281
-0.00741429
0.000588481
0.000996165
0.00117713
0.00141829
0.00126011
0.00184152
-0.00167694
0.00155051
-0.00256892
0.0014225
-0.00340489
0.00149049
-0.00416399
0.00181462
-0.00470864
0.00236413
-0.004932
0.00302916
-0.00486179
0.00373912
-0.00455443
0.00444814
-0.00406807
0.00511434
-0.00344495
0.00565319
-0.00270931
0.00588213
-0.00184062
0.00516427
-0.000833012
0.0021328
-9.18351e-05
-0.00129571
0.000366342
-0.00419571
0.000481415
-0.00673953
0.000592708
0.00066791
0.00150538
0.000864231
0.00181417
0.000847222
0.00218431
-0.00119001
0.00189744
-0.00202388
0.00170801
-0.00285444
0.0017014
-0.0036158
0.00189371
-0.00424308
0.00229207
-0.00463657
0.00284569
-0.00474851
0.00347463
-0.0045973
0.00411392
-0.00422021
0.00469778
-0.00365152
0.00512408
-0.00291587
0.0051806
-0.0020078
0.00428528
-0.000961637
0.0015365
-0.000236715
-0.0015262
0.000138686
-0.00413897
0.000309687
-0.00621547
0.00126062
0.000503764
0.00186585
0.000583369
0.00207802
0.000432187
0.00250323
-0.000751106
0.00220142
-0.00149399
0.00195196
-0.00226782
0.00185378
-0.00300682
0.00192963
-0.00365171
0.00218219
-0.0041332
0.00259167
-0.00438255
0.00309996
-0.00437383
0.00363205
-0.00411543
0.0041048
-0.00362723
0.0043978
-0.00292526
0.00429142
-0.00202673
0.00330025
-0.0010228
0.000882299
-0.000307443
-0.00179648
3.35866e-05
-0.00418163
0.000181409
-0.00586712
0.00176438
0.000332655
0.00211657
0.000342738
0.00216747
0.00289476
-0.000391687
0.00247267
-0.00102235
0.00216152
-0.00170356
0.00196973
-0.00238377
0.0019284
-0.00300559
0.0020414
-0.00351091
0.00229738
-0.0038389
0.00265724
-0.00393982
0.0030523
-0.00379408
0.0033904
-0.00340103
0.00354356
-0.00277301
0.00329705
-0.00193092
0.00227829
-0.00100481
0.000176305
-0.00031682
-0.00211264
8.73504e-06
-0.00425782
0.000109809
-0.00564944
0.00209704
0.000197539
0.00226177
0.000113171
0.00205446
0.00311383
-0.000219222
0.00272687
-0.000645892
0.0023407
-0.00120153
0.00206128
-0.00179511
0.00190585
-0.00236123
0.00188305
-0.00284724
0.00198629
-0.00319982
0.00218745
-0.0033691
0.00242769
-0.0033152
0.00261842
-0.0030221
0.00263115
-0.00248862
0.0022783
-0.00175429
0.00127098
-0.000923642
-0.000544797
-0.000283725
-0.00245256
2.3099e-05
-0.00432812
7.90375e-05
-0.00550458
0.00229458
8.93484e-05
0.00228559
4.23778e-05
0.00201223
0.00321334
-9.96677e-05
0.00287752
-0.000369868
0.00248082
-0.000786018
0.0021341
-0.00127435
0.00187559
-0.00176485
0.00172414
-0.00220232
0.00168069
-0.00254163
0.00172402
-0.00273638
0.00180673
-0.00274813
0.00184565
-0.00254243
0.00172786
-0.00211882
0.00128679
-0.00149712
0.000313467
-0.000796809
-0.00122048
-0.000247985
-0.00278377
4.74753e-05
-0.0043744
6.93344e-05
-0.00539086
0.00238392
3.30612e-05
0.00229491
1.74688e-05
0.00199492
0.0032176
-4.4059e-06
0.00294126
-0.000163409
0.00256598
-0.00045502
0.00218529
-0.000837204
0.00184607
-0.00124483
0.0015805
-0.00162122
0.00140088
-0.00192252
0.00129708
-0.00211469
0.00122698
-0.00215663
0.00112548
-0.00202796
0.000883946
-0.00169852
0.000372427
-0.00120447
-0.00053572
-0.000647952
-0.00180313
-0.000214196
-0.00308835
5.65636e-05
-0.00439348
6.64909e-05
-0.00528657
0.00241699
1.0753e-05
0.00230162
4.71078e-06
0.00199036
0.00313792
7.9525e-05
0.00293194
4.91193e-06
0.00259514
-0.000192575
0.00221083
-0.000480564
0.00181939
-0.000810526
0.00146249
-0.00112681
0.00116568
-0.00138602
0.00092915
-0.00155458
0.000727785
-0.00161549
0.000495565
-0.00152671
0.000152256
-0.00129627
-0.000393343
-0.000932757
-0.00120599
-0.000534224
-0.00225679
-0.000194334
-0.00334412
4.1508e-05
-0.00439767
6.06565e-05
-0.00518444
0.00242774
9.70484e-08
0.00230623
-4.56358e-06
0.00199508
0.00297648
0.000161284
0.00285691
0.000154556
0.00257397
2.60878e-05
0.00220733
-0.00018907
0.00179316
-0.000454328
0.00137368
-0.000721718
0.000984997
-0.000946126
0.000643035
-0.0010999
0.00033054
-0.00115734
3.38799e-06
-0.00112332
-0.000401101
-0.000973361
-0.000945916
-0.000743712
-0.00167212
-0.000466654
-0.00258563
-0.000205441
-0.0035387
1.6057e-07
-0.00440124
4.49757e-05
-0.00508734
0.00242784
-7.19553e-06
0.00230887
-1.37826e-05
0.00200902
0.00272624
0.00025008
0.0027199
0.000298292
0.00250785
0.00022067
0.00217504
5.83766e-05
0.00176255
-0.00015846
0.00131053
-0.000391173
0.000860276
-0.000596997
0.000442107
-0.000745198
5.66656e-05
-0.00082603
-0.000325826
-0.000828125
-0.000753428
-0.000770995
-0.00128368
-0.00063561
-0.00197086
-0.000445001
-0.00280829
-0.000244037
-0.00367863
-6.55788e-05
-0.00441603
1.48538e-05
-0.00500524
0.00242064
-1.44021e-05
0.00230949
-2.90421e-05
0.00203821
0.0023642
0.000361889
0.00252069
0.000449295
0.00240143
0.000404712
0.00211723
0.00027848
0.0017245
9.64229e-05
0.00126522
-0.000113152
0.00078311
-0.000314006
0.000318635
-0.000473524
-0.000108386
-0.000580146
-0.000514073
-0.000637783
-0.000945605
-0.000635949
-0.00147855
-0.000576128
-0.00215256
-0.000453921
-0.00295664
-0.000296687
-0.00378332
-0.000139396
-0.00444441
-3.72672e-05
-0.00495277
0.00240624
-2.63545e-05
0.0023068
-6.45867e-05
0.00210295
0.00183089
0.000533156
0.00225804
0.000624535
0.00225988
0.00059085
0.00203839
0.00048355
0.00167911
0.000323875
0.00123134
0.000130297
0.000740782
-7.0824e-05
0.000253761
-0.000249133
-0.000195157
-0.000386753
-0.000611758
-0.000482459
-0.00105039
-0.000532997
-0.00158354
-0.000530957
-0.00226122
-0.000467468
-0.00306041
-0.000350149
-0.00386974
-0.00021027
-0.00448863
-9.51848e-05
-0.00495218
0.00237988
-5.28054e-05
0.00229502
-0.000177954
0.00228106
-0.000855639
0.00167735
0.00100918
0.00194245
0.000848749
0.00209174
0.000792675
0.00194468
0.000684556
0.00162789
0.00053477
0.00120468
0.000350537
0.000722509
0.00014857
0.000229188
-4.62502e-05
-0.000233028
-0.000211261
-0.000659739
-0.00033877
-0.00110254
-0.000430297
-0.00163773
-0.000478785
-0.00232403
-0.000468112
-0.00313482
-0.00039301
-0.00394546
-0.000274369
-0.00454693
-0.000151917
-0.00500943
0.00232708
-0.000114572
0.00223164
-0.000493754
0.00191918
-0.00128711
0.00133231
0.00163215
0.00171777
0.00123386
0.00191373
0.00102675
0.00184584
0.000891516
0.00157428
0.000738159
0.0011821
0.000557354
0.000719364
0.000353682
0.00023128
0.000146479
-0.000239294
-3.99835e-05
-0.00067743
-0.000193568
-0.00112417
-0.000317135
-0.00165984
-0.00040817
-0.00235541
-0.000447355
-0.00318512
-0.000417725
-0.00401038
-0.000327981
-0.00461666
-0.000204515
-0.00512355
0.00221251
-0.00023521
0.00197309
-0.000832516
0.00146458
-0.00173858
0.000789496
0.00228139
0.00156076
0.00178916
0.00180549
0.0013421
0.00175851
0.00111409
0.00152505
0.000940754
0.0011628
0.000757456
0.000724462
0.000552257
0.000249865
0.000335096
-0.000223463
0.000130648
-0.000673498
-4.39151e-05
-0.00112641
-0.000191325
-0.00166052
-0.000316435
-0.00236232
-0.000401207
-0.00321293
-0.000419435
-0.00406138
-0.000366567
-0.00469449
-0.000249969
-0.00529061
0.00197729
-0.000386284
0.00152686
-0.00110483
0.000830834
-0.00289494
0.00372003
0.00137738
0.00246477
0.00184952
0.00174513
0.00172816
0.00137245
0.00149209
0.00114704
0.00114907
0.000954487
0.000733624
0.000748293
0.00027802
0.000524102
-0.000191408
0.000303041
-0.000651577
0.000108728
-0.00111432
-5.59978e-05
-0.00164675
-0.000205082
-0.00234991
-0.000328794
-0.00321931
-0.000394723
-0.00409568
-0.000384955
-0.00477656
-0.000284274
-0.00550374
0.00159101
-0.000516417
0.000938449
-0.00203711
0.00239756
0.00269986
0.00205388
0.00226041
0.00180199
0.0016713
0.00150074
0.00136381
0.00114696
0.00114914
0.000744431
0.00094368
0.000310467
0.000715846
-0.000147084
0.000479778
-0.000612757
0.000264221
-0.00108856
8.29598e-05
-0.0016237
-7.90488e-05
-0.0023234
-0.000231573
-0.00320633
-0.000341691
-0.00411227
-0.000377976
-0.00485835
-0.000302946
-0.00575203
0.00107459
-0.0010812
0.00134477
0.00108921
0.00229786
0.00245588
0.0020016
0.0020608
0.0015822
0.00158984
0.00117053
0.00134024
0.000755055
0.00113852
0.000341221
0.000912926
-9.48183e-05
0.00066358
-0.000557624
0.000424645
-0.00104652
0.000222184
-0.0015934
5.26621e-05
-0.00228865
-0.000113811
-0.00317733
-0.000260554
-0.00411226
-0.000341606
-0.00493425
-0.000301909
-0.00602005
0.00188577
-0.000510785
0.00178364
0.00160343
0.00224933
0.00220815
0.00178917
0.00185382
0.0012421
0.00151827
0.000764919
0.00133038
0.000360787
0.00111895
-4.16081e-05
0.000859716
-0.000488102
0.000594059
-0.000985136
0.000363261
-0.00155201
0.000180786
-0.00225194
1.59179e-05
-0.00313672
-0.000154471
-0.0040984
-0.000274415
-0.00499745
-0.000278324
-0.00628817
0.00200806
0.000833123
0.00043973
0.00225585
0.00159691
0.00208276
0.00191456
0.00141585
0.00168007
0.000770565
0.00151262
0.000354793
0.00133637
-5.27781e-07
0.00107787
-0.000408978
0.000780591
-0.000902695
0.000511617
-0.00149335
0.0003046
-0.00221374
0.000142564
-0.00309039
-3.05084e-05
-0.00407405
-0.000178931
-0.0050406
-0.000231316
-0.00653378
0.00294089
0.00167729
0.00101828
0.00220459
0.00147507
0.00170537
0.00162504
0.00074842
0.00170221
0.000296853
0.00157057
4.44728e-06
0.0013314
-0.000329989
0.000998882
-0.000799459
0.000677355
-0.00141285
0.000431115
-0.00216885
0.000259695
-0.0030464
9.84696e-05
-0.00404161
-6.31568e-05
-0.00505704
-0.000162676
-0.00673328
0.00472367
0.0017031
0.00151977
0.0018547
0.00132572
0.000361233
0.00201221
0.00010734
0.00189174
-7.21718e-05
0.00164719
-0.000271232
0.00127264
-0.000678978
0.000878395
-0.00130739
0.000571898
-0.00211201
0.000374289
-0.00300739
0.000220619
-0.00400234
5.89605e-05
-0.00504319
-7.73149e-05
-0.00686481
0.00680408
0.000513049
0.00286141
-0.000986744
0.00267343
-0.000506049
0.00262559
-0.000307905
0.00212755
-0.000269469
0.00164543
-0.000551272
0.00114491
-0.00117492
0.000745925
-0.00203786
0.000497791
-0.00296695
0.000333853
-0.00394819
0.000166269
-0.00499822
1.3624e-05
-0.00691142
0.00771221
-0.00224528
0.00411979
-0.00148323
0.00365042
-0.000839381
0.00315736
-0.000357439
0.00221562
-0.000428108
0.00152222
-0.00101217
0.000982101
-0.00193728
0.000645387
-0.00291982
0.000450756
-0.00387521
0.00026077
-0.00491655
8.42605e-05
-0.00686737
0.00557409
-0.00175012
0.00438649
-0.00177517
0.00458634
-0.000435681
0.00323603
-0.000283375
0.00207085
-0.000803851
0.00131375
-0.00179022
0.000835032
-0.00286046
0.000586205
-0.00378045
0.000356022
-0.00479357
0.000137532
-0.00675286
0.00394386
-0.00199537
0.00460671
-0.000683158
0.00483425
4.60548e-05
0.00290678
-0.000487703
0.00175446
-0.00156006
0.00108341
-0.00277632
0.000751082
-0.0036608
0.000466726
-0.00462147
0.000183792
-0.00658529
0.00208252
-0.000897514
0.0048215
0.000615293
0.00426541
9.39566e-05
0.00232493
-0.00118643
0.00138044
-0.00263914
0.000946315
-0.00351396
0.000604526
-0.00438961
0.000234871
-0.00637182
0.00133181
0.000997646
0.00443956
0.00107292
0.00328654
-0.000511963
0.00164993
-0.00241698
0.00115816
-0.00333259
0.00076528
-0.00408485
0.000299918
-0.00610785
0.00248218
0.00157353
0.0039391
0.000797661
0.00197654
-0.00212832
0.00136086
-0.00311406
0.000939949
-0.00369736
0.000378045
-0.00577969
0.00421804
0.00143825
0.00329819
-0.00183992
0.00168751
-0.00302226
0.0012693
-0.00320254
0.000445439
-0.00537452
0.00582751
-0.00145633
0.00291391
-0.00353105
0.00219642
-0.00238425
0.000451319
-0.00490328
0.00455765
-0.0036447
0.00302746
-0.000513848
0.000326311
-0.00442761
0.00111117
0.00142838
0.00108542
-0.0040784
0.00273567
-0.00297156
)
;

boundaryField
{
    floor
    {
        type            calculated;
        value           nonuniform List<scalar> 
36
(
0
0
0
0
0
0
0
0
0
0
0
0
0
0
0
0
0
0
0
-6.60346e-06
-1.74615e-05
-2.69958e-05
-3.55959e-05
-3.64202e-05
-3.0217e-05
-3.00206e-05
-3.21491e-06
-6.01545e-06
-6.19475e-06
-6.32965e-06
-4.22675e-06
-9.57126e-06
-1.04378e-05
-1.40576e-05
-1.51361e-05
-1.65156e-05
)
;
    }
    ceiling
    {
        type            calculated;
        value           nonuniform List<scalar> 
43
(
-5.41437e-05
-6.21897e-05
-6.25134e-05
-5.93996e-05
-5.51666e-05
-4.83596e-05
-4.25252e-05
-3.85528e-05
-3.6196e-05
-3.50146e-05
-3.46922e-05
-3.50102e-05
-3.57243e-05
-3.65429e-05
-3.72283e-05
-3.76861e-05
-3.78995e-05
-3.79115e-05
-3.7725e-05
-3.73113e-05
-3.66537e-05
-3.57739e-05
-3.47459e-05
-3.36862e-05
-3.27195e-05
-3.19369e-05
-3.13724e-05
-3.10032e-05
-3.07651e-05
-3.05615e-05
-3.02868e-05
-2.98428e-05
-2.91655e-05
-2.82276e-05
-2.70386e-05
-2.56533e-05
-2.41728e-05
-2.26915e-05
-2.11673e-05
-1.97147e-05
1.86727e-05
1.46747e-05
-0.000158351
)
;
    }
    sWall
    {
        type            calculated;
        value           nonuniform List<scalar> 9(-0.000142215 -0.000166148 -0.000195576 -0.000227365 -0.000247217 -0.000283018 -0.000459128 -0.0004818 -0.000498201);
    }
    nWall
    {
        type            calculated;
        value           nonuniform List<scalar> 
14
(
-9.22624e-05
-9.96987e-05
-0.000105485
-0.000107131
-0.000119904
-0.000134021
-0.000146495
-0.000152438
-0.000162295
-0.000171568
-0.000186904
-0.000198624
-0.000195798
-0.000215875
)
;
    }
    sideWalls
    {
        type            empty;
        value           nonuniform 0();
    }
    glass1
    {
        type            calculated;
        value           nonuniform List<scalar> 9(-6.54162e-05 -0.000174483 -0.000264428 -0.000339279 -0.000402022 -0.000455362 -0.000500874 -0.000543144 -0.000594391);
    }
    glass2
    {
        type            calculated;
        value           nonuniform List<scalar> 2(-0.000377276 -0.00039503);
    }
    sun
    {
        type            calculated;
        value           uniform 0;
    }
    Table_master
    {
        type            calculated;
        value           nonuniform List<scalar> 9(-1.54151e-07 -1.54272e-07 -1.54302e-07 -1.5432e-07 -1.5433e-07 -1.54333e-07 -1.54329e-07 -1.54312e-07 -1.54254e-07);
    }
    Table_slave
    {
        type            calculated;
        value           nonuniform List<scalar> 9(1.53827e-07 1.53864e-07 1.53851e-07 1.53866e-07 1.53881e-07 1.53921e-07 1.53988e-07 1.54083e-07 1.54216e-07);
    }
    inlet
    {
        type            calculated;
        value           uniform -0.0116683;
    }
    outlet
    {
        type            calculated;
        value           nonuniform List<scalar> 2(0.0094142 0.0130049);
    }
}


// ************************************************************************* //
