/*--------------------------------*- C++ -*----------------------------------*\
  =========                 |
  \\      /  F ield         | OpenFOAM: The Open Source CFD Toolbox
   \\    /   O peration     | Website:  https://openfoam.org
    \\  /    A nd           | Version:  6
     \\/     M anipulation  |
\*---------------------------------------------------------------------------*/
FoamFile
{
    version     2.0;
    format      ascii;
    class       volScalarField;
    location    "26499.9999986919247";
    object      T;
}
// * * * * * * * * * * * * * * * * * * * * * * * * * * * * * * * * * * * * * //

dimensions      [0 0 0 1 0 0 0];

internalField   nonuniform List<scalar> 
778
(
302.565
302.246
302.23
302.225
302.22
302.216
302.212
302.207
302.202
302.198
302.192
302.184
302.175
302.164
302.154
302.223
302.094
302.086
302.085
302.087
302.091
302.095
302.1
302.105
302.11
302.115
302.12
302.125
302.13
302.135
302.142
302.15
302.182
302.778
302.277
302.245
302.244
302.245
302.245
302.245
302.243
302.239
302.234
302.226
302.212
302.192
302.166
302.138
302.119
302.105
302.101
302.082
302.063
302.056
302.053
302.052
302.054
302.056
302.057
302.059
302.061
302.063
302.065
302.068
302.072
302.079
302.09
302.106
302.158
302.994
302.324
302.272
302.278
302.289
302.299
302.307
302.313
302.315
302.313
302.304
302.285
302.254
302.213
302.167
302.127
302.095
302.075
302.049
302.041
302.039
302.039
302.04
302.041
302.042
302.044
302.045
302.046
302.047
302.048
302.05
302.052
302.057
302.067
302.084
302.145
303.204
302.385
302.303
302.315
302.336
302.358
302.379
302.395
302.407
302.411
302.403
302.379
302.335
302.274
302.207
302.146
302.097
302.062
302.047
302.036
302.032
302.032
302.033
302.034
302.035
302.035
302.036
302.036
302.036
302.037
302.037
302.037
302.037
302.043
302.053
302.071
302.136
303.405
302.459
302.335
302.349
302.38
302.414
302.448
302.479
302.504
302.517
302.513
302.485
302.426
302.341
302.248
302.164
302.099
302.057
302.036
302.028
302.027
302.029
302.031
302.034
302.036
302.037
302.038
302.039
302.039
302.039
302.039
302.038
302.038
302.039
302.045
302.061
302.113
302.125
302.138
302.235
303.594
302.544
302.372
302.377
302.415
302.458
302.503
302.547
302.587
302.613
302.617
302.587
302.512
302.4
302.279
302.173
302.095
302.049
302.028
302.021
302.022
302.027
302.032
302.037
302.04
302.042
302.043
302.043
302.043
302.043
302.042
302.041
302.04
302.039
302.042
302.052
302.085
302.098
302.112
302.245
303.757
302.639
302.42
302.401
302.439
302.485
302.535
302.585
302.635
302.675
302.692
302.664
302.575
302.435
302.291
302.17
302.085
302.037
302.016
302.013
302.019
302.028
302.036
302.042
302.046
302.048
302.049
302.049
302.048
302.047
302.045
302.044
302.042
302.04
302.04
302.047
302.066
302.079
302.096
302.227
303.91
302.783
302.516
302.436
302.457
302.499
302.544
302.592
302.642
302.701
302.731
302.7
302.596
302.444
302.284
302.152
302.064
302.017
302.002
302.006
302.019
302.033
302.044
302.051
302.055
302.057
302.057
302.055
302.053
302.051
302.049
302.046
302.043
302.041
302.04
302.043
302.055
302.068
302.106
302.404
304.118
303.233
302.844
302.589
302.504
302.516
302.552
302.593
302.65
302.719
302.754
302.712
302.589
302.417
302.245
302.11
302.027
301.991
301.988
302.003
302.023
302.042
302.055
302.063
302.066
302.066
302.064
302.061
302.058
302.055
302.051
302.048
302.045
302.042
302.04
302.042
302.05
302.079
302.157
302.552
304.103
303.535
303.163
302.863
302.687
302.618
302.609
302.633
302.703
302.773
302.786
302.707
302.546
302.349
302.171
302.044
301.978
301.962
301.977
302.006
302.035
302.058
302.071
302.076
302.076
302.074
302.07
302.065
302.061
302.057
302.053
302.049
302.045
302.042
302.041
302.042
302.065
302.243
302.359
302.558
304.107
303.67
303.356
303.096
302.915
302.816
302.778
302.787
302.836
302.865
302.815
302.666
302.451
302.232
302.06
301.96
301.926
301.939
301.977
302.021
302.056
302.079
302.088
302.089
302.085
302.079
302.073
302.067
302.062
302.057
302.053
302.049
302.045
302.043
302.041
302.045
302.107
302.302
302.43
302.576
304.139
303.758
303.494
303.282
303.128
303.033
302.991
302.99
302.994
302.939
302.781
302.538
302.275
302.056
301.92
301.869
301.883
301.934
301.996
302.051
302.087
302.103
302.105
302.098
302.089
302.081
302.074
302.067
302.062
302.057
302.053
302.049
302.046
302.043
302.043
302.05
302.108
302.296
302.436
302.59
304.205
303.877
303.634
303.45
303.319
303.233
303.186
303.158
303.071
302.873
302.579
302.258
301.993
301.829
301.771
301.797
301.87
301.96
302.04
302.096
302.123
302.127
302.118
302.106
302.094
302.084
302.075
302.068
302.063
302.058
302.054
302.05
302.048
302.047
302.051
302.064
302.115
302.271
302.398
302.543
304.139
303.889
303.681
303.539
303.424
303.333
303.256
303.125
302.849
302.469
302.083
301.787
301.628
301.599
301.664
301.781
301.911
302.027
302.108
302.15
302.156
302.147
302.132
302.116
302.103
302.091
302.082
302.074
302.068
302.063
302.06
302.057
302.057
302.062
302.078
302.107
302.158
302.272
302.377
302.514
304.28
304.088
303.617
303.296
303.093
302.927
302.735
302.362
301.89
301.495
301.268
301.218
301.306
301.473
301.67
301.863
302.019
302.132
302.184
302.196
302.187
302.171
302.154
302.137
302.123
302.111
302.101
302.092
302.086
302.081
302.078
302.077
302.084
302.103
302.14
302.191
302.25
302.328
302.408
302.536
294.642
296.443
298.137
299.038
299.382
299.571
299.823
300.153
300.528
300.908
301.268
301.582
301.839
302.048
302.169
302.228
302.245
302.24
302.226
302.21
302.193
302.179
302.167
302.157
302.149
302.141
302.133
302.128
302.125
302.126
302.136
302.163
302.215
302.286
302.366
302.444
302.504
302.588
294.923
295.746
296.639
297.499
298.273
298.999
299.685
300.3
300.825
301.264
301.638
301.917
302.105
302.225
302.285
302.305
302.304
302.293
302.28
302.267
302.256
302.248
302.243
302.241
302.239
302.237
302.231
302.221
302.213
302.208
302.21
302.227
302.268
302.334
302.415
302.499
302.566
302.637
299.766
298.69
297.314
296.751
297.503
298.506
299.409
300.144
300.718
301.16
301.52
301.811
302.037
302.198
302.298
302.351
302.37
302.371
302.364
302.354
302.344
302.337
302.334
302.334
302.338
302.345
302.351
302.356
302.355
302.347
302.332
302.318
302.307
302.307
302.323
302.36
302.414
302.476
302.537
302.607
300.122
299.991
299.404
298.879
299.279
299.998
300.659
301.179
301.567
301.85
302.058
302.21
302.317
302.384
302.42
302.433
302.434
302.428
302.421
302.414
302.409
302.408
302.411
302.418
302.429
302.442
302.455
302.465
302.47
302.467
302.455
302.437
302.42
302.408
302.405
302.415
302.438
302.471
302.515
302.581
300.843
300.832
300.884
300.971
301.123
301.466
301.789
302.035
302.209
302.328
302.408
302.461
302.492
302.508
302.513
302.512
302.508
302.502
302.497
302.494
302.494
302.497
302.505
302.516
302.529
302.543
302.556
302.565
302.568
302.565
302.558
302.546
302.535
302.527
302.525
302.53
302.544
302.562
302.58
302.62
)
;

boundaryField
{
    floor
    {
        type            wallHeatTransfer;
        Tinf            uniform 305.2;
        alphaWall       uniform 0.36;
        value           nonuniform List<scalar> 
36
(
302.544
302.868
302.622
302.613
302.621
302.639
302.665
302.693
302.722
302.751
302.779
302.806
302.832
302.858
302.883
302.91
302.94
302.968
303.04
303.04
302.909
302.841
302.792
302.711
302.62
302.714
302.544
302.487
302.489
302.498
302.868
302.498
302.535
302.418
302.434
302.394
)
;
    }
    ceiling
    {
        type            wallHeatTransfer;
        Tinf            uniform 303.2;
        alphaWall       uniform 0.36;
        value           nonuniform List<scalar> 
43
(
301.03
301.045
301.093
301.167
301.303
301.62
301.92
302.15
302.314
302.427
302.505
302.558
302.591
302.61
302.617
302.617
302.613
302.608
302.603
302.6
302.599
302.601
302.606
302.614
302.624
302.634
302.642
302.647
302.647
302.643
302.633
302.621
302.608
302.599
302.594
302.597
302.606
302.62
302.634
302.671
304.19
304.016
295.883
)
;
    }
    sWall
    {
        type            wallHeatTransfer;
        Tinf            uniform 315.2;
        alphaWall       uniform 0.54;
        value           nonuniform List<scalar> 9(305.123 305.181 305.292 305.437 305.375 305.601 301.395 301.77 302.496);
    }
    nWall
    {
        type            wallHeatTransfer;
        Tinf            uniform 308.2;
        alphaWall       uniform 0.54;
        value           nonuniform List<scalar> 
14
(
303.576
303.432
303.291
303.303
303.327
303.345
303.271
303.234
303.255
303.328
303.385
303.309
303.248
303.331
)
;
    }
    sideWalls
    {
        type            empty;
    }
    glass1
    {
        type            wallHeatTransfer;
        Tinf            uniform 315.2;
        alphaWall       uniform 4.3;
        value           nonuniform List<scalar> 9(311.625 310.812 310.3 309.912 309.605 309.358 309.142 308.996 309.046);
    }
    glass2
    {
        type            wallHeatTransfer;
        Tinf            uniform 308.2;
        alphaWall       uniform 4.3;
        value           nonuniform List<scalar> 2(305.771 305.666);
    }
    sun
    {
        type            wallHeatTransfer;
        Tinf            uniform 305.2;
        alphaWall       uniform 0.36;
        value           nonuniform List<scalar> 
14
(
303.018
302.731
302.719
302.7
302.684
302.669
302.656
302.643
302.631
302.618
302.605
302.591
302.576
302.56
)
;
    }
    Table_master
    {
        type            zeroGradient;
    }
    Table_slave
    {
        type            zeroGradient;
    }
    inlet
    {
        type            fixedValue;
        value           uniform 293.15;
    }
    outlet
    {
        type            zeroGradient;
    }
}


// ************************************************************************* //
