/*--------------------------------*- C++ -*----------------------------------*=========                 |
  \      /  F ield         | OpenFOAM: The Open Source CFD Toolbox
   \    /   O peration     | Website:  https://openfoam.org
    \  /    A nd           | Version:  6
     \/     M anipulation  |
\*---------------------------------------------------------------------------*/
FoamFile
{
    version     2.0;
    format      ascii;
    class       volScalarField;
    location    "180";
    object      PMV;
}
// * * * * * * * * * * * * * * * * * * * * * * * * * * * * * * * * * * * * * //

dimensions      [0 0 0 0 0 0 0];

internalField   nonuniform List<scalar> 
458
(
1.2499788500220292
0.9983710355992238
0.9606353206453704
0.9327938225138633
0.9197124509039939
0.9203091283985971
0.9364461150903878
0.9705520794669985
1.0288032244874958
1.1104129191977172
1.1866302758858283
1.1970524883275198
1.1704815298780433
1.174995578218259
1.185000272387066
1.4572129533361455
1.4357124573749254
1.4247223124070294
1.4328455270943707
1.4433573802363335
1.4468575683672489
1.433951912730426
1.432531473843428
1.436412988824197
1.4414631820499435
1.4481348110800343
1.455055407005383
1.4635936399035983
1.4748552794170704
1.4915841553287736
1.5169897557170293
1.5532132776506107
1.579469410647703
1.172332254702299
1.0135406703697183
0.9979079262218118
0.9718493368658988
0.9591120639360834
0.9585653501237781
0.9681157649348185
0.9847664356794805
1.011305524435456
1.0563526427809813
1.1342454539640225
1.1972724544198672
1.202907031235697
1.173902610228907
1.135662237471746
1.1209537446119304
1.153523169258386
1.2079684389172627
1.4460642427923007
1.4099084772002224
1.4036958809441051
1.4042647359603222
1.4073842371443686
1.4141825899853577
1.4200168338812031
1.4269007141951273
1.4334490018892507
1.4396621907123772
1.4470167187775578
1.4546609714951373
1.463075785791818
1.4731227221213068
1.4893941430538802
1.5166753256105605
1.5444168146820572
1.558064887950104
1.1897432388293943
1.007598570360064
1.0363006744857435
1.027387157856842
1.024597792481381
1.0247793090809423
1.0203396039846833
0.9984666816305324
0.9773359861467259
0.9951814672082185
1.0693129815095879
1.1560655579365224
1.2108535899736337
1.210928597779086
1.1793309883455219
1.1707426821911844
1.1801303128757605
1.1920977209781736
1.3340985157522203
1.3380487129472738
1.3316198212928672
1.3497130162801723
1.3742723291341752
1.3847439829716062
1.4156412316928357
1.442350236167502
1.4587117971150727
1.4702957796575986
1.480621512271273
1.4901750580593218
1.5002056562300823
1.507640764219878
1.5167354258201036
1.5350687290955598
1.5338685316147131
1.4952002632580281
1.254034055566
1.003480803862185
1.06630104125667
1.090942343782652
1.1170473940879104
1.1270434627496613
1.0934321715623965
1.0118083930416812
0.9429783853594689
0.9472910748954815
1.0252039238362816
1.1275391869502758
1.2134255462159231
1.249186961326873
1.2305769500729202
1.2044962148373104
1.1718108859454297
1.1435230473867706
1.119805946244005
1.1833924378211769
1.2377279018879437
1.291597309150394
1.3526342256228556
1.4140063386860273
1.4627068617486767
1.4759075222880085
1.4875043860950121
1.5031015298551438
1.521491011913489
1.5416083283459021
1.5641089763678342
1.59115451161175
1.627587439683704
1.6100168674633875
1.5823204072868027
1.5315232255036835
1.4610449896455284
1.3409735014516946
1.0142499394886508
1.0898112575531334
1.1522240333387528
1.2344981286474954
1.2692463926470856
1.156074299627667
1.0136929922219895
0.9124887342718165
0.9136098697305143
0.997924445528801
1.1198725229766582
1.231944592033242
1.2988791228669174
1.2970127294634815
1.2627588820176685
1.2219142411327844
1.1948342962324845
1.205160481764235
1.2383775296669015
1.2933354024228811
1.3638144080887344
1.438019553560337
1.5087908222174344
1.5676098423829865
1.5997381861968594
1.622143652979142
1.6431014686486802
1.6595242961898167
1.67201694085983
1.6815298046217153
1.6873646659383554
1.688369173305768
1.660000085604125
1.6112582574634173
1.533934157120054
1.5162834537195327
1.5911494081628317
1.7093297794975177
1.590638594633605
1.4345399984872582
1.0474157724292443
1.130215540181819
1.1999458374671217
1.3095287515900362
1.3328414827654849
1.154536319185285
0.9909038900118994
0.8860223651552476
0.8891803850469133
0.9903732398670873
1.1396345458744248
1.2815651947967552
1.371196073489541
1.3750198463403993
1.3645043062498083
1.326684765668243
1.3073331634991807
1.3258115526372016
1.370603121973105
1.4350000688603937
1.509063235133475
1.5837283316912034
1.6415107900591601
1.6782425020863252
1.7049483912638104
1.7249730832438521
1.7387971956432355
1.7478532515720355
1.752142646911085
1.7511894656096434
1.7449935415921463
1.7326004328816242
1.7034179335776471
1.6474019102001676
1.5652583541156067
1.543590976150563
1.5713206746608406
1.6138024442021224
1.634115657160433
1.5295774410071798
1.1382228705180688
1.267318728676675
1.285062978947106
1.3457185490905312
1.258523521686982
1.1055118508034543
0.9370661003149336
0.8402433352510524
0.8710877105024265
1.010162687752089
1.2007602217235722
1.3810604281126397
1.4462241411565764
1.4533908372517534
1.4433573802363335
1.4376237188336132
1.4500464159354773
1.4873090546712018
1.540321341655642
1.597607871714112
1.65248390044213
1.6997031502381847
1.73736721027729
1.7654861130660606
1.7850210687402337
1.7978830841279925
1.8050277796744867
1.8083617554117162
1.8074092049956945
1.8012173533942262
1.7907377659065133
1.7740629829575238
1.748806468171538
1.7023918576430845
1.625981164120441
1.5853384106138741
1.575020341621214
1.5618331232835116
1.6574761146281394
1.6690150022794483
1.5033370364878764
1.4566492983987187
1.3605658747260272
1.32597923814925
1.203813010118692
1.00016655524298
0.822058271423241
0.7680517532852497
0.8730639115542842
1.0838181929146182
1.3356661839097788
1.4987727533884252
1.5431863201408322
1.5489160997057139
1.545096273038511
1.550825973249507
1.5751730799750305
1.6205157870559919
1.6753807438069341
1.7235428865118068
1.7659626280587528
1.7993120733260315
1.8236010117625012
1.8402655359374192
1.8507385050037155
1.856450410804492
1.8578783177959877
1.8559744356127528
1.8502624928843525
1.8407416117227091
1.8278865198872112
1.8116955927817242
1.7878794661834057
1.7607208205991507
1.7321237417042754
1.7139940898309967
1.6884123496635535
1.6283786248053427
1.5585661973703584
1.878687673330168
1.7470626347353508
1.601591604051586
1.4806944625174618
1.3401588672674236
1.0048881598377652
0.710382991131115
0.5976679376786806
0.6944983472874446
0.962855568960897
1.286196632852346
1.5326811134145741
1.622901775017495
1.6342696294311574
1.6370203685147224
1.647886153129746
1.6723614861723348
1.7109160101146852
1.755002129973564
1.7952824406870236
1.8229880599575314
1.8405707060222716
1.8513417163323438
1.857431549251704
1.8595954718703163
1.8587203486981123
1.8547042055832452
1.847954436263451
1.8373012314939874
1.823075338038871
1.8068940009458643
1.788184402145035
1.7688481774104456
1.7475658979216468
1.7263453993626083
1.708810442445688
1.7009981134571506
1.6999959516914547
1.6923656686275936
1.6725960323306648
-2.020802960877879
-1.4253016553859517
-1.1660378569912624
-0.7403111800653366
-0.2077939555362471
0.3504331660358208
0.8904222994646087
1.3563783117988624
1.5788624170603531
1.642871334515403
1.6718028915826912
1.6869512799253865
1.7010465663565806
1.7200872282034816
1.7460298162130279
1.7772362230920817
1.8095435148906398
1.8367528740658419
1.8556275155770532
1.8666048862774465
1.870885186322517
1.870292784127127
1.8663103896640776
1.8596904327189994
1.851149751274451
1.8415340494833203
1.8307304466719894
1.819739288981144
1.808953692600201
1.7992380405863844
1.7902530849204084
1.7831315415642566
1.7789846151341864
1.7799247495473405
1.7935053311257214
1.836213340210403
1.9234783696924203
1.8227505322623025
-1.9660968779535153
-0.917845509658946
-0.15751782161778544
0.5441506425814714
1.0000627516368334
1.288429939921178
1.4760163472422874
1.610285117366866
1.6842887158151938
1.723441816027866
1.7471169957580723
1.7657816066293028
1.7840844850894841
1.804486710429182
1.8268708179671156
1.8499262035316717
1.8702768487800197
1.8862674933836965
1.8955798805922952
1.8995669651862044
1.8985906426011825
1.894860871611476
1.8894219988302015
1.8827041132325577
1.8756093749393528
1.8675821866192366
1.859620777106595
1.851866775537814
1.8451869380430346
1.8407850522755298
1.8399749612901453
1.8436154904646582
1.8499651445292304
1.8581550973442356
1.8704560765797955
1.9143217057724276
1.8691333968197912
1.8503937792053764
-0.9512797985859096
-0.9617435150503945
-0.8440151749221247
0.15574389001184
0.9156383921195944
1.3728426285904751
1.5750279253089572
1.674833330533057
1.7377715138100034
1.7808477093595856
1.8101722692543898
1.8326029005787738
1.8503088861235157
1.8664736376738988
1.880933773446677
1.8950444399166526
1.9089836886247769
1.9222237806309896
1.9335954965026991
1.941914754057513
1.9470930230591892
1.950113468884347
1.950474484297172
1.948589002549546
1.9452335994696595
1.93965175368182
1.932643401928165
1.923815665058552
1.9146288953641748
1.9059461112719895
1.8990897781782694
1.8971905493776247
1.9037994346155684
1.9236517563089706
1.9306628074180805
1.9301873503900109
1.8983849414504206
1.87586491440428
1.8475627173190134
1.8565513481212075
)
;

boundaryField
{
    ".*"
    {
        type            zeroGradient;
    }
}


// ************************************************************************* //
