/*--------------------------------*- C++ -*----------------------------------*=========                 |
  \      /  F ield         | OpenFOAM: The Open Source CFD Toolbox
   \    /   O peration     | Website:  https://openfoam.org
    \  /    A nd           | Version:  6
     \/     M anipulation  |
\*---------------------------------------------------------------------------*/
FoamFile
{
    version     2.0;
    format      ascii;
    class       volScalarField;
    location    "180";
    object      PPD;
}
// * * * * * * * * * * * * * * * * * * * * * * * * * * * * * * * * * * * * * //

dimensions      [0 0 0 0 0 0 0];

internalField   nonuniform List<scalar> 
458
(
37.720140639410985
26.048907352825154
24.489942367481007
23.37534204316873
22.862277490777814
22.885530570598334
23.519808772982984
24.894300222640325
27.345592267734872
30.98861809464367
34.592782917835336
35.09953289669612
33.81397246126369
34.03088163604998
34.51381792481973
48.57536984375186
47.41714444924378
46.827113859228234
47.26308783039852
47.82840811571538
48.01691744555971
47.32252891168335
47.246217798156806
47.454802522395816
47.72644774834455
48.08573822354498
48.45892760439468
48.91999324248171
49.52912584911277
50.43582471355452
51.81615047837271
53.78849794275029
55.21897609562735
33.902828636466666
26.69093444939446
26.029443933181682
24.947479161719855
24.42817133424296
24.406023170649533
24.79460413192689
25.480544577896353
26.595791686844393
28.548952088401336
32.09569673597099
35.11026230166658
35.38557970544012
33.97830554007896
32.162095747499734
31.475953043308976
33.00468428635139
35.63366723547911
47.97417990130006
46.03420768977677
45.70256257705949
45.73290698088391
45.89939180324327
46.26268073347087
46.57494423423393
46.943950004071645
47.29550801219355
47.62954121051881
48.02549189998745
48.4376449429724
48.892009647934046
49.435343514547505
50.31701366807172
51.79904739790466
53.309276060877124
54.05283648671455
34.74380779655573
26.438412483771145
27.670338682404193
27.284488933289268
27.164344632235057
27.17215419899091
26.98149126990637
26.052928149619234
25.173116410582097
25.915022390721205
29.124526504737446
33.125442962080626
35.77541015194909
35.77909830391678
34.23978745080781
33.82650446520658
34.27836539829838
34.85822465286412
42.029482222757686
42.23563474529042
41.90028203868132
42.8461307718011
44.13967370768705
44.694347114947504
46.34070885920517
47.77419095394719
48.65628855502259
49.28237590691423
49.841420353042274
50.359375679493006
50.90384767153456
51.30781112944817
51.80231645083658
52.80013651995976
52.73478218596129
50.632071431656684
37.92402584135374
26.26419895259754
28.99023203477644
30.098273439277747
31.294919190732287
31.75917647592121
30.21140669210142
26.617180804311232
23.779514963065736
23.951902625175066
27.19042758535379
31.78228545441536
35.90196424424626
37.68037582640094
36.750599319418285
35.463395622182844
33.8777863595143
32.53167551102824
31.42270763600635
34.436004214598455
37.106784966903945
39.831950520740286
42.999425174138786
46.25325432522318
48.87207536863168
49.58609499273784
50.214517788112545
51.061150363109206
52.06103511762607
53.15629510942027
54.38215386873616
55.8552996514113
57.83597382291191
56.881543815649884
55.37425886880276
52.60708411304186
48.78229401713456
42.38846993495787
26.721164818040577
30.04694939227963
32.943056110975064
36.94574197530724
38.69256233701887
33.12585852524896
26.697425101546244
22.58189861613384
22.62527621135473
26.03013806150183
31.425794884328724
36.818614895228414
40.205669604257814
40.10976769384363
38.364102888484545
36.32096472685158
34.991413503902734
35.49594349933788
37.139210229680884
39.92104390756172
43.587554110941085
47.54118693843234
51.37032181370547
54.572897388463595
56.322482366067085
57.540460111446585
58.67702443236176
59.56520813178304
60.239101835557825
60.75111635355708
61.06463915721553
61.11857157845689
59.59090284831052
56.949031099162795
52.73835559629861
51.77773253779535
55.85502181529125
62.240897226057506
55.82721230104023
47.35412992486338
28.155566461922163
31.90718672237425
35.24077532903074
40.754365456256544
41.96394497571441
33.052782712656665
25.736075442093053
21.572689422438287
21.691612233511336
25.713925062753134
32.34860760594462
39.319077268755144
43.977071054348535
44.17920941175414
43.623918811115736
41.643413070880754
40.64103936840723
41.5980138946128
43.94574757398718
47.37885479019571
51.38512960928837
55.45093690018985
58.59087368108213
60.57430043848842
62.006801555900644
63.074350300572526
63.807580449854065
64.28610381247401
64.51223076210383
64.4620110881177
64.13515685425273
63.47930538763893
61.92496487424477
58.9098313859065
54.44477798572149
53.26429046605351
54.775071761179014
57.08731995093764
58.19009732589237
52.501150950818136
32.282266961223826
38.59485725573022
39.497628473954826
42.636773439306296
38.15023327874913
30.763292550238816
23.544385028063402
19.894898974389264
21.01582675630469
26.547217337375173
35.28057411848009
44.499029919624455
47.98279330992191
48.36912243699348
47.82840811571538
47.51990031467388
48.18877169031007
50.20392487661189
53.08619641066742
56.206559779746264
59.184743754964
61.72619100554311
63.73188581976843
65.21340554852225
66.23337053449916
66.90036229615109
67.26921247970341
67.44091384874909
67.39188449550497
67.0726468402886
66.53028794576286
65.66221708243313
64.3363848806265
61.870079968024704
57.748797343374534
55.538619154689265
54.97662366662593
54.258152322317756
59.45457228079157
60.07731679802948
51.0739450346815
48.54494515760841
43.41643566824556
41.60673081564261
35.429932982092424
26.1244458559579
19.252601212221634
17.427277956241255
21.088986433867802
29.775746240485233
42.11125877254445
50.82603061109088
53.242248195782764
53.55438127586179
53.34628874544871
53.65843190701047
54.98494423049041
57.452056657665665
60.42027120094719
62.99831095378189
65.23838029796293
66.97423138051923
68.22224529121252
69.0697899197245
69.59858334904989
69.88568501434435
69.95731090594137
69.86179635477463
69.57461535182823
69.09389336382351
68.4409035915977
67.61233754255451
66.38192325745402
64.96339963408306
63.45402519699182
62.48979884195681
61.12088945042862
57.87890715873338
54.08015070697009
70.99431739425387
64.24438692885133
56.423323375158645
49.84537292117105
42.34588444883418
26.32366907931916
15.615505606869974
12.488781121090355
15.141583302778216
24.580140273066988
39.55555960226324
52.670127366745696
57.581625524539945
58.19844595589658
58.347566321266484
58.93603641898633
60.257664309183845
62.32557966762507
64.66278304560137
66.7658044565537
68.19093196199341
69.08524121894041
69.62894683638739
69.934906668754
70.04336777731511
69.99952079366702
69.79801309751005
69.45831039982019
68.91957002279577
68.19539125084287
67.36535691198479
66.39776021098709
65.38951682229734
64.2709429380244
63.147281046944116
62.21316385941675
61.79550483180185
61.741865436491445
61.33301795729849
60.27029979949473
77.68186454344877
46.858180523579904
33.6010521489909
16.53794756384295
5.895498993458233
7.55509668155392
21.738491130292587
43.19613052346845
55.18591350566164
58.664561686011695
60.22756921437916
61.04244061348116
61.79809785729377
62.81444829667339
64.18987292756815
65.82787736026606
67.5017102666273
68.89175520287422
69.8443807263348
70.3937579407724
70.60700849889935
70.57752687226088
70.37906563068913
70.04812433792418
69.61928512301124
69.13400028122629
68.5857436519711
68.02480407852862
67.47137071789793
66.97040556369744
66.50514276960513
66.13507125266835
65.91906112360363
65.96806469796425
66.6737664709728
68.86438002894592
73.1802254548013
68.17879499541678
75.19595350407748
22.789613447698002
5.514180706896397
11.197073933771051
26.120075450851985
39.66977193799001
49.59198735465401
56.89612766736284
60.899411954765725
62.992936083421206
64.24725565670263
65.22889327919924
66.18465627078342
67.24132187065125
68.38912289384899
69.55767877214957
70.57673368449403
71.36878115957855
71.82636432995216
72.0214280112813
71.97371014136114
71.7911329686809
71.52409274762294
71.19296291488118
70.84173451590426
70.44249657683692
70.044635334672
69.65536804045837
69.31865717275298
69.0960924256197
69.0550752495485
69.23926418208296
69.55964012538736
69.9711877597913
70.5856543749727
72.73874554816427
70.51979807281008
69.58122647412011
24.111994264415117
24.534938844396777
20.02985186718226
5.502652587948788
22.70389006610901
44.06408377034759
54.9770367958379
60.390796977479546
63.75329079903197
66.0161544673201
67.53404305288615
68.68099040773056
69.57695160949794
70.3872103219463
71.10546675250916
71.80012937656275
72.48006714302551
73.1199064024278
73.66464375969845
74.06027101473364
74.30527111110439
74.44772763476502
74.46473226223087
74.37586925428316
74.21740776852357
73.95289754283327
73.61920944610549
73.19643292406349
72.75360267533594
72.33244233231318
71.99810931663454
71.90522645120382
72.22793063918553
73.1885573921016
73.52459236032962
73.50185827061132
71.96365252657402
70.85441193976294
69.43855650510028
69.89075010721686
)
;

boundaryField
{
    ".*"
    {
        type            zeroGradient;
    }
}


// ************************************************************************* //
