/*--------------------------------*- C++ -*----------------------------------*\
  =========                 |
  \\      /  F ield         | OpenFOAM: The Open Source CFD Toolbox
   \\    /   O peration     | Website:  https://openfoam.org
    \\  /    A nd           | Version:  6
     \\/     M anipulation  |
\*---------------------------------------------------------------------------*/
FoamFile
{
    version     2.0;
    format      ascii;
    class       volVectorField;
    location    "10100";
    object      U;
}
// * * * * * * * * * * * * * * * * * * * * * * * * * * * * * * * * * * * * * //

dimensions      [0 1 -1 0 0 0 0];

internalField   nonuniform List<vector> 
778
(
(0.0655998 0.0794063 0)
(-0.155175 0.0157631 0)
(-0.164298 0.0146211 0)
(-0.192408 0.0122708 0)
(-0.216837 0.00872083 0)
(-0.23689 0.00474071 0)
(-0.252011 0.000415129 0)
(-0.261778 -0.00436854 0)
(-0.265676 -0.00980908 0)
(-0.262704 -0.0161872 0)
(-0.250907 -0.0242589 0)
(-0.226216 -0.0348764 0)
(-0.186102 -0.0503967 0)
(-0.14417 -0.0751648 0)
(-0.150048 -0.108554 0)
(0.0546767 0.0355045 0)
(0.0158047 -0.0268993 0)
(0.0450267 -0.0232846 0)
(0.0694711 -0.0161795 0)
(0.0845694 -0.0103682 0)
(0.0918008 -0.00641851 0)
(0.0946394 -0.00433637 0)
(0.0956692 -0.00331505 0)
(0.0961224 -0.00272966 0)
(0.0962968 -0.0023169 0)
(0.0961755 -0.00195203 0)
(0.0956498 -0.00151056 0)
(0.0943899 -0.00075516 0)
(0.0915368 0.000851467 0)
(0.0853194 0.00407956 0)
(0.0737532 0.00779632 0)
(0.060044 0.0116526 0)
(-0.00785063 0.030028 0)
(0.2584 0.167392 0)
(-0.161234 0.0483889 0)
(-0.141598 0.045973 0)
(-0.173996 0.0416047 0)
(-0.199351 0.0356564 0)
(-0.220063 0.0291178 0)
(-0.236085 0.0220488 0)
(-0.247332 0.0142226 0)
(-0.253506 0.00529526 0)
(-0.253827 -0.00514949 0)
(-0.247679 -0.0170766 0)
(-0.233983 -0.0308443 0)
(-0.214084 -0.048072 0)
(-0.197514 -0.0699565 0)
(-0.194006 -0.0826335 0)
(-0.166409 -0.0425343 0)
(-0.105367 -0.0363531 0)
(-0.0983192 -0.0444609 0)
(0.109353 -0.0421524 0)
(0.0644844 -0.0412382 0)
(0.0719694 -0.0323431 0)
(0.0860006 -0.020791 0)
(0.0939569 -0.0105314 0)
(0.096226 -0.00365295 0)
(0.0959921 -0.000188931 0)
(0.0955966 0.00125226 0)
(0.0955545 0.00189257 0)
(0.0956328 0.00226347 0)
(0.09564 0.00258698 0)
(0.0955407 0.00313256 0)
(0.0952503 0.00441815 0)
(0.093992 0.00774065 0)
(0.0883886 0.0167894 0)
(0.0746099 0.0254011 0)
(0.0632158 0.0330586 0)
(-0.0518355 0.0636927 0)
(0.42998 0.253953 0)
(-0.194235 0.0847546 0)
(-0.112774 0.0784195 0)
(-0.148233 0.0669375 0)
(-0.170657 0.0554791 0)
(-0.188742 0.043707 0)
(-0.202571 0.0313285 0)
(-0.212257 0.0179998 0)
(-0.217605 0.003401 0)
(-0.217964 -0.0126215 0)
(-0.212712 -0.0303092 0)
(-0.201611 -0.0498951 0)
(-0.185971 -0.0715621 0)
(-0.169429 -0.0932127 0)
(-0.15105 -0.104564 0)
(-0.120208 -0.0931338 0)
(-0.0795126 -0.0949221 0)
(-0.0714017 -0.107574 0)
(0.0921805 -0.0882154 0)
(0.0626135 -0.0658373 0)
(0.0744324 -0.0462337 0)
(0.0881018 -0.0293729 0)
(0.0949998 -0.0150469 0)
(0.0921467 -0.0120796 0)
(0.0879051 -0.00796334 0)
(0.0855295 -0.00577948 0)
(0.0848372 -0.00455699 0)
(0.0848122 -0.00379792 0)
(0.0850642 -0.00322767 0)
(0.0857152 -0.00260002 0)
(0.0874793 -0.00143794 0)
(0.0921729 0.00292751 0)
(0.0903427 0.0251376 0)
(0.0735367 0.0424422 0)
(0.0702229 0.0576351 0)
(-0.0897673 0.101148 0)
(0.578546 0.325837 0)
(-0.240106 0.121804 0)
(-0.0808298 0.109205 0)
(-0.121565 0.0898294 0)
(-0.138993 0.0740412 0)
(-0.153046 0.0586079 0)
(-0.163798 0.0427299 0)
(-0.171385 0.0257953 0)
(-0.175591 0.00719565 0)
(-0.175655 -0.0135223 0)
(-0.170967 -0.0364541 0)
(-0.1614 -0.0614403 0)
(-0.147529 -0.0873653 0)
(-0.130539 -0.110304 0)
(-0.109566 -0.123203 0)
(-0.0820746 -0.124533 0)
(-0.0524523 -0.12635 0)
(-0.033315 -0.123173 0)
(0.0164619 -0.0568143 0)
(0.0609041 -0.0930575 0)
(0.0685481 -0.0792598 0)
(0.0791589 -0.0589289 0)
(0.0916472 -0.039714 0)
(0.102975 -0.0210672 0)
(0.115732 -0.0132966 0)
(0.126962 -0.00886856 0)
(0.132628 -0.00563611 0)
(0.133659 -0.00311882 0)
(0.131168 -0.000889843 0)
(0.125732 0.00128215 0)
(0.117222 0.00366499 0)
(0.104873 0.00672249 0)
(0.0856276 0.0111571 0)
(0.0717418 0.0368526 0)
(0.0604633 0.0606424 0)
(0.0765 0.0835727 0)
(-0.117243 0.13762 0)
(0.705724 0.383676 0)
(-0.287682 0.156999 0)
(-0.0476934 0.13376 0)
(-0.0962847 0.106891 0)
(-0.107731 0.0875639 0)
(-0.116758 0.0691422 0)
(-0.12354 0.0504213 0)
(-0.128193 0.0305711 0)
(-0.130546 0.0087195 0)
(-0.129735 -0.0158121 0)
(-0.125233 -0.0430617 0)
(-0.116605 -0.0726696 0)
(-0.103872 -0.102822 0)
(-0.0873788 -0.129098 0)
(-0.0674091 -0.145793 0)
(-0.044047 -0.15226 0)
(-0.0201754 -0.152348 0)
(0.000376561 -0.143693 0)
(0.030898 -0.115003 0)
(0.0570619 -0.109384 0)
(0.0706344 -0.0924975 0)
(0.0807593 -0.0713552 0)
(0.0908127 -0.050925 0)
(0.10037 -0.0328929 0)
(0.109505 -0.019488 0)
(0.116581 -0.010091 0)
(0.120061 -0.0033841 0)
(0.120311 0.00188032 0)
(0.117938 0.00643685 0)
(0.113314 0.0107997 0)
(0.106468 0.0154793 0)
(0.0973332 0.0211772 0)
(0.0854188 0.0291948 0)
(0.0738829 0.0472205 0)
(0.0634411 0.0713152 0)
(0.0951204 0.0995493 0)
(0.0174711 0.138802 0)
(0.0970477 0.182748 0)
(0.140318 0.14625 0)
(-0.221104 0.201728 0)
(0.810427 0.431969 0)
(-0.331319 0.190668 0)
(-0.0173151 0.150225 0)
(-0.0733614 0.117492 0)
(-0.078583 0.0954784 0)
(-0.0821989 0.0749111 0)
(-0.0844473 0.0543126 0)
(-0.0854785 0.0326984 0)
(-0.0852162 0.00885153 0)
(-0.0825342 -0.0184039 0)
(-0.0773616 -0.0490073 0)
(-0.0687238 -0.0824847 0)
(-0.0567089 -0.116504 0)
(-0.0416212 -0.14633 0)
(-0.0246087 -0.166019 0)
(-0.00619357 -0.174505 0)
(0.0122016 -0.172731 0)
(0.0281247 -0.160982 0)
(0.0462827 -0.139311 0)
(0.0627192 -0.122356 0)
(0.0733731 -0.102542 0)
(0.0810339 -0.0805289 0)
(0.0877829 -0.0592187 0)
(0.0939689 -0.0403635 0)
(0.0993275 -0.0251894 0)
(0.103064 -0.013827 0)
(0.104723 -0.00512536 0)
(0.10435 0.0020786 0)
(0.102239 0.00856092 0)
(0.0986382 0.0148388 0)
(0.0937034 0.0214372 0)
(0.0876673 0.0289867 0)
(0.080801 0.0383991 0)
(0.0750644 0.0528198 0)
(0.0698876 0.0728196 0)
(0.0921137 0.0985792 0)
(0.0743207 0.107501 0)
(0.0913368 0.0481358 0)
(0.146493 -0.0352971 0)
(-0.322906 0.106761 0)
(0.879888 0.474681 0)
(-0.368637 0.22095 0)
(0.00371405 0.155531 0)
(-0.0526567 0.121539 0)
(-0.0521992 0.0978155 0)
(-0.0510122 0.0757835 0)
(-0.0490008 0.0540097 0)
(-0.0464779 0.0315109 0)
(-0.0432818 0.00676175 0)
(-0.0373128 -0.0222933 0)
(-0.0302291 -0.0553494 0)
(-0.0204298 -0.0919262 0)
(-0.00860056 -0.128901 0)
(0.00463895 -0.16128 0)
(0.0177163 -0.181912 0)
(0.0305243 -0.190227 0)
(0.0423448 -0.187214 0)
(0.0526539 -0.174385 0)
(0.0626131 -0.154029 0)
(0.0711687 -0.13239 0)
(0.0766695 -0.109406 0)
(0.0801082 -0.0859471 0)
(0.0826952 -0.063813 0)
(0.0849377 -0.0443478 0)
(0.0867967 -0.0282681 0)
(0.0879359 -0.0154805 0)
(0.0881226 -0.00520923 0)
(0.0872029 0.0034608 0)
(0.0853491 0.0112105 0)
(0.0827048 0.0185603 0)
(0.0794414 0.0260057 0)
(0.0758378 0.0340419 0)
(0.0723048 0.0432158 0)
(0.0702396 0.0548076 0)
(0.0690768 0.0692073 0)
(0.0822717 0.0881695 0)
(0.0857894 0.09149 0)
(0.0917273 0.0544169 0)
(0.18162 0.027455 0)
(-0.277684 0.156665 0)
(0.927924 0.517141 0)
(-0.38315 0.234145 0)
(0.0168866 0.132932 0)
(-0.0273178 0.116612 0)
(-0.0265399 0.0948766 0)
(-0.0227235 0.0723812 0)
(-0.0176002 0.0500592 0)
(-0.012315 0.0272145 0)
(-0.0053284 0.00182516 0)
(0.00465023 -0.0307449 0)
(0.0143882 -0.0653218 0)
(0.0257047 -0.10333 0)
(0.0373625 -0.14087 0)
(0.0480479 -0.172163 0)
(0.0571441 -0.192354 0)
(0.0646391 -0.199822 0)
(0.0703594 -0.195373 0)
(0.0743059 -0.181152 0)
(0.0769882 -0.160054 0)
(0.0783234 -0.136066 0)
(0.0779349 -0.111083 0)
(0.0764055 -0.0866057 0)
(0.0745737 -0.0640977 0)
(0.0729709 -0.0445483 0)
(0.0717378 -0.0283257 0)
(0.0707365 -0.0151441 0)
(0.0697611 -0.00430621 0)
(0.0685172 0.00496016 0)
(0.0670934 0.0132341 0)
(0.0654566 0.0209977 0)
(0.0636779 0.0286702 0)
(0.0619365 0.0365926 0)
(0.0605362 0.0450323 0)
(0.0603689 0.0544204 0)
(0.061371 0.0646717 0)
(0.0703919 0.0773441 0)
(0.0810451 0.0801967 0)
(0.0828368 0.0608359 0)
(0.239081 0.0571934 0)
(-0.543964 0.235495 0)
(1.01128 0.506793 0)
(-0.137129 0.296324 0)
(0.0410952 0.16148 0)
(0.0406428 0.122022 0)
(0.013124 0.0919014 0)
(0.0087031 0.065286 0)
(0.014142 0.0413118 0)
(0.0207858 0.0169079 0)
(0.0326169 -0.0110787 0)
(0.0441025 -0.0421831 0)
(0.0559991 -0.0769257 0)
(0.0682947 -0.114648 0)
(0.0794407 -0.151117 0)
(0.0879367 -0.180584 0)
(0.0931422 -0.198602 0)
(0.0951745 -0.20375 0)
(0.094444 -0.197077 0)
(0.091498 -0.18101 0)
(0.0870123 -0.158603 0)
(0.0814377 -0.133181 0)
(0.0750706 -0.107182 0)
(0.0685179 -0.0824302 0)
(0.0625107 -0.0602713 0)
(0.0575775 -0.0414199 0)
(0.0539146 -0.0259477 0)
(0.0514149 -0.0133499 0)
(0.0497958 -0.00284915 0)
(0.0486516 0.00624536 0)
(0.0479207 0.0144338 0)
(0.0473659 0.0221532 0)
(0.0469171 0.0297341 0)
(0.0465983 0.0373857 0)
(0.0465149 0.0451841 0)
(0.0470924 0.0531285 0)
(0.0483704 0.0607084 0)
(0.0542247 0.0678844 0)
(0.0656102 0.064521 0)
(0.0640117 0.035438 0)
(0.288273 0.0707114 0)
(-0.74562 0.308956 0)
(0.77931 0.395635 0)
(0.000971058 0.319448 0)
(0.0934462 0.218871 0)
(0.110683 0.155102 0)
(0.0772575 0.106731 0)
(0.0598753 0.0674326 0)
(0.0583015 0.0356369 0)
(0.0624885 0.0062899 0)
(0.0739494 -0.023542 0)
(0.0855516 -0.0551232 0)
(0.0977756 -0.0898052 0)
(0.109659 -0.126294 0)
(0.119033 -0.160066 0)
(0.124121 -0.185771 0)
(0.124325 -0.199828 0)
(0.120078 -0.2014 0)
(0.112335 -0.191854 0)
(0.102167 -0.173741 0)
(0.0906152 -0.150099 0)
(0.0785191 -0.12397 0)
(0.066572 -0.0979038 0)
(0.0555174 -0.0738221 0)
(0.0460955 -0.0529664 0)
(0.0387956 -0.0357703 0)
(0.0337323 -0.0219987 0)
(0.0306584 -0.0108547 0)
(0.0290929 -0.00142053 0)
(0.0285508 0.00693329 0)
(0.0287161 0.0146516 0)
(0.0292401 0.0221007 0)
(0.0299533 0.0295167 0)
(0.0307289 0.0370325 0)
(0.0314112 0.0446692 0)
(0.0318099 0.0523416 0)
(0.0310134 0.0595675 0)
(0.0294637 0.0657955 0)
(0.0139806 0.0656746 0)
(0.00598398 0.0984525 0)
(0.0302732 0.177522 0)
(-0.633357 0.305634 0)
(0.617234 0.220639 0)
(0.00478847 0.298024 0)
(0.113085 0.241488 0)
(0.14837 0.177473 0)
(0.13095 0.123394 0)
(0.117934 0.0776916 0)
(0.115085 0.0387307 0)
(0.117278 0.00322831 0)
(0.123679 -0.0308768 0)
(0.131942 -0.0651301 0)
(0.141659 -0.100577 0)
(0.150555 -0.135413 0)
(0.155683 -0.165261 0)
(0.155114 -0.185776 0)
(0.148538 -0.194646 0)
(0.136859 -0.191892 0)
(0.121547 -0.179254 0)
(0.104103 -0.159304 0)
(0.0858973 -0.134959 0)
(0.0680331 -0.109019 0)
(0.0514623 -0.0839828 0)
(0.0370798 -0.0617301 0)
(0.0256622 -0.0433476 0)
(0.0175333 -0.0288853 0)
(0.0125021 -0.0177044 0)
(0.00990771 -0.0086189 0)
(0.00900706 -0.000639474 0)
(0.00932731 0.00674343 0)
(0.0103517 0.0138664 0)
(0.011806 0.0209836 0)
(0.0135088 0.0282522 0)
(0.0152651 0.0358145 0)
(0.0167588 0.043817 0)
(0.0174415 0.052493 0)
(0.0159749 0.0621309 0)
(0.0115892 0.0740431 0)
(-0.0183031 0.0995648 0)
(-0.0179955 0.151581 0)
(-0.0027212 0.185737 0)
(-0.542392 0.180989 0)
(0.570785 0.11822 0)
(-0.02024 0.258519 0)
(0.113723 0.229829 0)
(0.165077 0.175973 0)
(0.166755 0.126056 0)
(0.164433 0.0809337 0)
(0.165446 0.0397785 0)
(0.16843 0.00141819 0)
(0.172422 -0.0355897 0)
(0.178036 -0.0720652 0)
(0.184238 -0.107672 0)
(0.187947 -0.139665 0)
(0.186141 -0.164178 0)
(0.177445 -0.178395 0)
(0.162309 -0.181512 0)
(0.142275 -0.174419 0)
(0.119274 -0.159137 0)
(0.0950538 -0.138104 0)
(0.0712019 -0.114048 0)
(0.0489418 -0.0894775 0)
(0.0294549 -0.0668162 0)
(0.01379 -0.0478327 0)
(0.00262251 -0.0332833 0)
(-0.00434167 -0.0224411 0)
(-0.00787757 -0.0143502 0)
(-0.00934348 -0.00736955 0)
(-0.00943139 -0.000786328 0)
(-0.00843525 0.00568016 0)
(-0.00683386 0.0122021 0)
(-0.0047282 0.0189197 0)
(-0.00225017 0.025955 0)
(0.00049397 0.0335825 0)
(0.00322224 0.0420622 0)
(0.00547202 0.0520683 0)
(0.00622218 0.0648765 0)
(0.00612879 0.0836036 0)
(-0.0141223 0.121658 0)
(-0.013422 0.189278 0)
(0.0784402 0.196303 0)
(-0.501796 0.0606909 0)
(0.628514 0.0534045 0)
(0.00920084 0.197223 0)
(0.113733 0.196911 0)
(0.17505 0.157847 0)
(0.191318 0.117547 0)
(0.198 0.0770776 0)
(0.20337 0.0370299 0)
(0.208629 -0.0017847 0)
(0.213194 -0.0399214 0)
(0.21756 -0.0767313 0)
(0.219419 -0.110072 0)
(0.215611 -0.136806 0)
(0.204252 -0.154342 0)
(0.185437 -0.161689 0)
(0.16078 -0.159397 0)
(0.132438 -0.148861 0)
(0.102633 -0.132136 0)
(0.0730631 -0.111316 0)
(0.0454856 -0.0889456 0)
(0.0210752 -0.067221 0)
(0.00144924 -0.0485588 0)
(-0.0123309 -0.0346477 0)
(-0.0203344 -0.0253976 0)
(-0.0246957 -0.018505 0)
(-0.0266751 -0.01269 0)
(-0.0271785 -0.00715861 0)
(-0.0266479 -0.00158433 0)
(-0.0252195 0.0041532 0)
(-0.023275 0.0101068 0)
(-0.0207744 0.0163462 0)
(-0.0177824 0.0229724 0)
(-0.0143016 0.0302311 0)
(-0.0103502 0.0385703 0)
(-0.00606887 0.0489156 0)
(-0.00205546 0.0633395 0)
(0.00344879 0.0864682 0)
(0.00117303 0.125544 0)
(-0.00368471 0.193583 0)
(0.154764 0.205151 0)
(-0.377383 0.0902702 0)
(0.472087 0.0747586 0)
(-0.132198 0.137536 0)
(0.0941139 0.133238 0)
(0.172574 0.116692 0)
(0.203691 0.095173 0)
(0.217997 0.0641494 0)
(0.228024 0.0280752 0)
(0.23716 -0.00931416 0)
(0.243602 -0.0456388 0)
(0.245156 -0.078513 0)
(0.239214 -0.105296 0)
(0.224431 -0.123946 0)
(0.201341 -0.133625 0)
(0.17186 -0.134775 0)
(0.138552 -0.128631 0)
(0.103686 -0.116452 0)
(0.0695206 -0.100072 0)
(0.0372335 -0.081116 0)
(0.00916048 -0.0621173 0)
(-0.0140089 -0.0450369 0)
(-0.0285778 -0.0337437 0)
(-0.0374614 -0.0262203 0)
(-0.0423598 -0.0208543 0)
(-0.0448457 -0.0163396 0)
(-0.0457311 -0.0120467 0)
(-0.0454946 -0.00760086 0)
(-0.0444096 -0.00283831 0)
(-0.0425518 0.002297 0)
(-0.040352 0.00773137 0)
(-0.0376665 0.0134611 0)
(-0.0345133 0.0195676 0)
(-0.0308535 0.0262303 0)
(-0.0265764 0.0338634 0)
(-0.0216876 0.0435898 0)
(-0.0167892 0.058346 0)
(-0.0105974 0.0818648 0)
(-0.00196179 0.11339 0)
(0.000869969 0.163653 0)
(0.181114 0.186398 0)
(-0.321212 0.155161 0)
(0.723892 0.134464 0)
(0.0819051 0.115231 0)
(0.149676 0.099155 0)
(0.22227 0.0803795 0)
(0.243915 0.0697429 0)
(0.248719 0.0473847 0)
(0.25506 0.0171862 0)
(0.261191 -0.0150967 0)
(0.260236 -0.0450762 0)
(0.249758 -0.0698429 0)
(0.229547 -0.0877138 0)
(0.201202 -0.0982339 0)
(0.167113 -0.10172 0)
(0.129814 -0.0991491 0)
(0.0917632 -0.0917498 0)
(0.0543725 -0.0801797 0)
(0.0202233 -0.066043 0)
(-0.0111123 -0.0504811 0)
(-0.0336762 -0.0382857 0)
(-0.0488247 -0.0299209 0)
(-0.0579758 -0.0247608 0)
(-0.063392 -0.0211655 0)
(-0.066416 -0.0182142 0)
(-0.0678384 -0.0153182 0)
(-0.0680269 -0.0122008 0)
(-0.0672019 -0.0086759 0)
(-0.0655484 -0.00461174 0)
(-0.0632034 5.68657e-05 0)
(-0.0605364 0.00518059 0)
(-0.0578252 0.0106047 0)
(-0.054971 0.0163805 0)
(-0.0521219 0.0226645 0)
(-0.0493857 0.0299299 0)
(-0.0468184 0.039601 0)
(-0.0447239 0.0543232 0)
(-0.0421663 0.0745168 0)
(-0.0330109 0.0934918 0)
(-0.0162389 0.111495 0)
(0.178191 0.155675 0)
(-0.388196 0.220572 0)
(0.192041 0.0879635 0)
(0.225822 0.0997152 0)
(0.246544 0.0699785 0)
(0.242594 0.0395229 0)
(0.239757 0.0117876 0)
(0.234683 -0.0131876 0)
(0.219912 -0.0336146 0)
(0.196186 -0.0487268 0)
(0.165889 -0.0585163 0)
(0.131488 -0.0634409 0)
(0.0947843 -0.0638145 0)
(0.0576811 -0.0603299 0)
(0.0220693 -0.0538007 0)
(-0.0127208 -0.0443197 0)
(-0.040082 -0.0351398 0)
(-0.0607698 -0.0277351 0)
(-0.0747864 -0.0231144 0)
(-0.0838695 -0.0204121 0)
(-0.089687 -0.0188008 0)
(-0.0934857 -0.0174532 0)
(-0.0958433 -0.0160408 0)
(-0.0970057 -0.0143869 0)
(-0.0970631 -0.0123585 0)
(-0.0960676 -0.00980515 0)
(-0.0941018 -0.00655289 0)
(-0.0913026 -0.0024366 0)
(-0.0877726 0.00255145 0)
(-0.0846578 0.00808223 0)
(-0.0818699 0.0141241 0)
(-0.0797462 0.0209625 0)
(-0.0785972 0.0292036 0)
(-0.0783344 0.0401456 0)
(-0.0795512 0.0553721 0)
(-0.0844627 0.0741195 0)
(-0.0886329 0.0899723 0)
(-0.0698595 0.103863 0)
(-0.0184004 0.15594 0)
(-0.502541 0.236924 0)
(0.451448 0.209353 0)
(0.207062 0.17864 0)
(0.153308 0.118742 0)
(0.139974 0.0639196 0)
(0.128389 0.0257295 0)
(0.114166 0.00164926 0)
(0.0986792 -0.0130911 0)
(0.077617 -0.0222979 0)
(0.053016 -0.0280376 0)
(0.0260296 -0.0306599 0)
(-0.00353277 -0.0300491 0)
(-0.0324005 -0.0270711 0)
(-0.0581019 -0.022981 0)
(-0.0797039 -0.018916 0)
(-0.0958606 -0.0161783 0)
(-0.107295 -0.01461 0)
(-0.115221 -0.01402 0)
(-0.121035 -0.0137548 0)
(-0.125537 -0.0135437 0)
(-0.129051 -0.0132753 0)
(-0.131636 -0.012922 0)
(-0.133251 -0.0124358 0)
(-0.133812 -0.0117173 0)
(-0.133216 -0.0105835 0)
(-0.131392 -0.00874814 0)
(-0.128361 -0.00583842 0)
(-0.12423 -0.00151402 0)
(-0.119158 0.00422138 0)
(-0.114873 0.0108574 0)
(-0.111371 0.0185574 0)
(-0.108585 0.0280149 0)
(-0.105819 0.0403993 0)
(-0.102877 0.0569089 0)
(-0.103033 0.0780131 0)
(-0.104498 0.102197 0)
(-0.0801905 0.123692 0)
(-0.0896551 0.12739 0)
(-0.589699 0.0924598 0)
(0.363315 -0.413243 0)
(-0.345691 -0.51281 0)
(-0.218691 -0.0284639 0)
(-0.0924312 0.110835 0)
(-0.0533238 0.0926672 0)
(-0.0311502 0.0546994 0)
(-0.0264773 0.0285619 0)
(-0.0316052 0.0118082 0)
(-0.0404805 0.000870248 0)
(-0.0509052 -0.00642609 0)
(-0.0644225 -0.0109546 0)
(-0.0795334 -0.0135065 0)
(-0.0951196 -0.0151842 0)
(-0.110082 -0.0170981 0)
(-0.12334 -0.0195227 0)
(-0.133943 -0.0222217 0)
(-0.141777 -0.0248154 0)
(-0.147762 -0.0267609 0)
(-0.152854 -0.0280843 0)
(-0.157575 -0.0288985 0)
(-0.162004 -0.029289 0)
(-0.166014 -0.0292766 0)
(-0.169411 -0.0288525 0)
(-0.171977 -0.0279856 0)
(-0.173469 -0.0266223 0)
(-0.173647 -0.0246713 0)
(-0.172346 -0.0219717 0)
(-0.169537 -0.0182566 0)
(-0.165358 -0.0131499 0)
(-0.159975 -0.00628841 0)
(-0.153562 0.00238041 0)
(-0.147541 0.0124008 0)
(-0.141116 0.0233615 0)
(-0.132834 0.0359788 0)
(-0.120886 0.0511531 0)
(-0.104385 0.0696396 0)
(-0.0816326 0.094161 0)
(-0.0373692 0.128036 0)
(0.107714 0.135627 0)
(-0.449215 0.0260568 0)
(0.125113 -0.184411 0)
(-0.387265 -0.297229 0)
(-0.342895 -0.096712 0)
(-0.264544 0.0514883 0)
(-0.210894 0.0836777 0)
(-0.178809 0.0747719 0)
(-0.162581 0.0612676 0)
(-0.156628 0.0512352 0)
(-0.156713 0.0459583 0)
(-0.159957 0.0452149 0)
(-0.164324 0.0481263 0)
(-0.168493 0.0536476 0)
(-0.171829 0.0605564 0)
(-0.17414 0.06696 0)
(-0.175901 0.0710262 0)
(-0.177736 0.0725889 0)
(-0.180082 0.0725506 0)
(-0.182948 0.0718603 0)
(-0.186142 0.0708125 0)
(-0.189482 0.0692986 0)
(-0.19282 0.0671461 0)
(-0.196032 0.064236 0)
(-0.199009 0.060473 0)
(-0.20165 0.0557875 0)
(-0.203862 0.0502203 0)
(-0.205556 0.0440596 0)
(-0.206639 0.0379148 0)
(-0.206976 0.0326193 0)
(-0.206348 0.0289822 0)
(-0.204414 0.0275181 0)
(-0.200454 0.0280958 0)
(-0.193785 0.0294429 0)
(-0.185201 0.0306617 0)
(-0.173022 0.0327843 0)
(-0.155218 0.0360005 0)
(-0.128925 0.0387394 0)
(-0.0888259 0.0393898 0)
(-0.0252421 0.0443251 0)
(0.166696 0.07498 0)
(-0.361401 0.0965818 0)
(1.14644 -0.0111656 0)
(-0.294368 -0.322707 0)
(-0.352604 -0.233859 0)
(-0.351915 -0.149487 0)
(-0.328188 -0.108034 0)
(-0.296454 -0.0993985 0)
(-0.269032 -0.101582 0)
(-0.249067 -0.107363 0)
(-0.235692 -0.115247 0)
(-0.227002 -0.125287 0)
(-0.221305 -0.137772 0)
(-0.217386 -0.152452 0)
(-0.214467 -0.167835 0)
(-0.212255 -0.181368 0)
(-0.210882 -0.190642 0)
(-0.210638 -0.195505 0)
(-0.211552 -0.197162 0)
(-0.213409 -0.196992 0)
(-0.215968 -0.195851 0)
(-0.219136 -0.194044 0)
(-0.222979 -0.191545 0)
(-0.227645 -0.188164 0)
(-0.233305 -0.183646 0)
(-0.240136 -0.177734 0)
(-0.248286 -0.170226 0)
(-0.257795 -0.16102 0)
(-0.26844 -0.150162 0)
(-0.279569 -0.13787 0)
(-0.290048 -0.1245 0)
(-0.298367 -0.110416 0)
(-0.302895 -0.0958485 0)
(-0.302013 -0.0809487 0)
(-0.294975 -0.0666055 0)
(-0.283178 -0.0542344 0)
(-0.267613 -0.0433772 0)
(-0.247851 -0.0336389 0)
(-0.217156 -0.0232687 0)
(-0.166357 -0.00183118 0)
(-0.150376 0.0455777 0)
(-0.566107 0.0997332 0)
)
;

boundaryField
{
    floor
    {
        type            noSlip;
    }
    ceiling
    {
        type            noSlip;
    }
    sWall
    {
        type            noSlip;
    }
    nWall
    {
        type            noSlip;
    }
    sideWalls
    {
        type            empty;
    }
    glass1
    {
        type            noSlip;
    }
    glass2
    {
        type            noSlip;
    }
    sun
    {
        type            noSlip;
    }
    Table_master
    {
        type            noSlip;
    }
    Table_slave
    {
        type            noSlip;
    }
    inlet
    {
        type            fixedValue;
        value           uniform (0.5 0 0);
    }
    outlet
    {
        type            zeroGradient;
    }
}


// ************************************************************************* //
