/*--------------------------------*- C++ -*----------------------------------*\
  =========                 |
  \\      /  F ield         | OpenFOAM: The Open Source CFD Toolbox
   \\    /   O peration     | Website:  https://openfoam.org
    \\  /    A nd           | Version:  6
     \\/     M anipulation  |
\*---------------------------------------------------------------------------*/
FoamFile
{
    version     2.0;
    format      ascii;
    class       volScalarField;
    location    "1100";
    object      alphat;
}
// * * * * * * * * * * * * * * * * * * * * * * * * * * * * * * * * * * * * * //

dimensions      [1 -1 -1 0 0 0 0];

internalField   nonuniform List<scalar> 
778
(
0.000989852
0.00105602
0.00142719
0.00106419
0.00256005
0.00180175
0.00111175
0.00216366
0.00353923
0.00217219
0.00115388
0.00242444
0.00254315
0.00483547
0.00254829
0.00119134
0.00261308
0.00343308
0.00241913
0.00657624
0.00292798
0.0012255
0.00281628
0.00376732
0.00388603
0.00240756
0.0086256
0.00332295
0.00125775
0.00301879
0.00407941
0.00433643
0.00377993
0.00288125
0.0105964
0.0036819
0.0012895
0.00320517
0.00436622
0.00462645
0.00445647
0.00323973
0.00403714
0.0121361
0.00380199
0.00132238
0.00335647
0.00461609
0.00484092
0.00467717
0.00431528
0.00263027
0.00582489
0.0117282
0.00374861
0.00135579
0.00345044
0.00482135
0.00498138
0.00475735
0.00452436
0.00396937
0.00252126
0.00748133
0.00951484
0.00353678
0.0013895
0.00350159
0.00497259
0.00505777
0.00472552
0.0044936
0.00432895
0.00320782
0.00353799
0.00785707
0.0081336
0.00323729
0.00142542
0.00348899
0.005091
0.0050905
0.00460956
0.00431755
0.004276
0.00392494
0.00217074
0.00515831
0.00763985
0.00730409
0.00295381
0.00146686
0.00336624
0.00523334
0.00513381
0.00446888
0.00403434
0.00404993
0.00402576
0.00250244
0.00327285
0.00603758
0.00737118
0.00647858
0.00295207
0.00151322
0.00303926
0.00540276
0.00529027
0.00440748
0.0037408
0.003682
0.00386696
0.00295712
0.00241254
0.00457935
0.00644568
0.00700041
0.00643957
0.00266658
0.00239872
0.00557499
0.00559786
0.00452812
0.00361772
0.00323676
0.00346501
0.0030616
0.00217538
0.00363376
0.0054578
0.00658714
0.00708479
0.00276555
0.00165954
0.00566516
0.00606724
0.0048627
0.00375397
0.00309632
0.00288449
0.00274052
0.00222278
0.00315667
0.00472103
0.00596857
0.00658391
0.00268951
0.00161508
0.00537776
0.00664798
0.00541479
0.00412807
0.00331494
0.00290849
0.00268136
0.00247987
0.00303884
0.00429044
0.00544946
0.00607662
0.00333601
0.000230073
0.00158176
0.00413639
0.007124
0.00617325
0.00470126
0.00376264
0.00323879
0.00295926
0.00285167
0.00321589
0.00414336
0.00510231
0.00565566
0.00371168
0.0001156
0.00323148
0.00188721
0.00701728
0.00706159
0.00548807
0.00436368
0.00370503
0.00336609
0.0032539
0.00348175
0.00412808
0.00489704
0.00532777
0.0038232
0.000129248
0.000548414
0.00330333
0.00564244
0.00790134
0.00649127
0.00516547
0.00431838
0.00385258
0.00365914
0.00374878
0.00415006
0.00468211
0.00493957
0.00374409
0.000200763
0.000384342
0.00157438
0.00498663
0.00538804
0.00191584
0.0085472
0.0075607
0.00616197
0.00513804
0.00449056
0.00414103
0.00405375
0.0042113
0.00447468
0.00448295
0.00332292
0.000237774
0.000653793
0.00363847
0.00676079
0.00286854
0.00469374
0.00208524
0.00440399
0.0083322
0.00855644
0.00725829
0.00616463
0.00536085
0.00482781
0.00453528
0.00444626
0.00444231
0.00422312
0.00313362
0.000676887
0.00226815
0.007728
0.00816577
0.00213662
0.00278316
0.00220154
0.00172008
0.00654204
0.0086755
0.00920284
0.00829932
0.007293
0.00645157
0.00579533
0.00532972
0.00503304
0.00482017
0.00448038
0.00362972
0.00220545
0.00550246
0.0106879
0.00973722
0.00218246
0.00270127
0.00141544
0.00380338
0.00766776
0.00907767
0.00950921
0.0090872
0.00834576
0.00762819
0.00698697
0.00645619
0.00605124
0.00574132
0.00542711
0.00498208
0.00479962
0.00885548
0.0122898
0.0105574
0.00215094
0.0010215
0.00255851
0.00530479
0.00803459
0.00931614
0.00968268
0.00952986
0.00914388
0.00868692
0.00821673
0.00777259
0.00739958
0.00712616
0.00696053
0.00697009
0.00770423
0.0112179
0.0129847
0.0106764
0.00203603
0.00110956
0.00354441
0.00600873
0.00704017
0.00932959
0.00972884
0.00971567
0.00959941
0.00944589
0.0092494
0.00902378
0.00881746
0.00869473
0.00873601
0.00909762
0.0102095
0.0125586
0.0131615
0.0103483
0.00188809
0.00113532
0.00407784
0.00551376
0.00167338
0.00895468
0.0096481
0.00971143
0.00974573
0.00982394
0.00990245
0.00994959
0.0099857
0.0100748
0.0103122
0.010841
0.0118479
0.0130994
0.0128088
0.00974271
0.00174263
0.00112415
0.00408856
0.00148685
0.00153761
0.00739617
0.00943999
0.00958348
0.00966736
0.00985718
0.0101165
0.010388
0.0106522
0.0109383
0.0113095
0.0118309
0.0124517
0.012791
0.0119467
0.00892426
0.00161032
0.00109016
0.00322582
0.00130515
0.00143047
0.00650935
0.00902124
0.00939819
0.00947131
0.00965847
0.00996376
0.0103316
0.0107189
0.0111122
0.0115149
0.0118988
0.0120768
0.0116913
0.0106379
0.00793024
0.0014899
0.00103719
0.00276538
0.00116074
0.00134
0.00587641
0.00857014
0.00919038
0.00925965
0.00937262
0.00960637
0.00992394
0.0102778
0.0106297
0.0109375
0.0110977
0.0109126
0.0101236
0.00903307
0.00681815
0.00138252
0.000981675
0.00244603
0.00104455
0.00126165
0.0053374
0.00812778
0.0089864
0.00909606
0.00912736
0.00923535
0.00940433
0.00959281
0.00975542
0.00983752
0.00977112
0.00934303
0.00845831
0.00737788
0.00571299
0.00129388
0.000929125
0.00220222
0.000949553
0.00119024
0.00479369
0.00765897
0.00877965
0.00899289
0.00898969
0.00899455
0.00901871
0.0090112
0.00895437
0.00876498
0.0084306
0.00786971
0.00693755
0.00590242
0.00477508
0.00122999
0.000880701
0.00200712
0.000870691
0.001122
0.00426174
0.0071125
0.0085225
0.00891776
0.00895176
0.00892254
0.00888009
0.0087981
0.00851545
0.00806149
0.00745988
0.00668727
0.00567861
0.00479093
0.00408293
0.00119263
0.000836356
0.00184705
0.00080483
0.00105331
0.00373923
0.00649534
0.00816066
0.00880568
0.0089551
0.00895837
0.00892201
0.00879305
0.00839109
0.00771553
0.0068098
0.00577168
0.00475658
0.0041125
0.00362825
0.0011793
0.000795646
0.001706
0.000750618
0.000977958
0.00321425
0.00580797
0.00767125
0.0085911
0.00891579
0.00900511
0.0090022
0.00883806
0.00837714
0.00753011
0.0063519
0.0051196
0.00418723
0.0037452
0.0033466
0.00118152
0.00075818
0.00156633
0.000708551
0.000897352
0.00266602
0.00504639
0.00704178
0.00823112
0.00877139
0.00896939
0.00901261
0.00884579
0.00835251
0.00740671
0.00605234
0.00471526
0.00387117
0.00355299
0.00318265
0.00119373
0.000723319
0.00141885
0.000780835
0.000893563
0.00204945
0.00420406
0.00626814
0.00770218
0.00848063
0.00882261
0.00891241
0.00876709
0.00828514
0.00731105
0.0058774
0.00448178
0.00369828
0.00345939
0.00310591
0.00121332
0.000689846
0.00127939
0.000909304
0.00137729
0.00153198
0.00327881
0.00535314
0.00699642
0.00802049
0.0085421
0.00872081
0.00860948
0.00815495
0.00720925
0.00576349
0.00433689
0.00359881
0.00342724
0.00310073
0.00123797
0.000656083
0.00115384
0.0013124
0.00074954
0.00145875
0.00240634
0.00431872
0.00611835
0.0073819
0.00810975
0.0084229
0.00838452
0.00797046
0.00706397
0.00564622
0.00421612
0.00353007
0.00343309
0.00315406
0.00126553
0.000618932
0.00120958
0.000687494
0.00106879
0.00180028
0.00327749
0.00509397
0.00656769
0.00751472
0.00799722
0.00807375
0.00772768
0.00686467
0.00548056
0.00407463
0.00346141
0.00345532
0.00324901
0.00129407
0.0005789
0.000617568
0.000860173
0.0013306
0.0023644
0.00400877
0.00559918
0.00675566
0.00742773
0.0076527
0.00740555
0.00660279
0.00525247
0.00389344
0.00337218
0.00347286
0.00336354
0.00132222
0.000508038
0.00112294
0.0013864
0.00171217
0.00296538
0.00453502
0.00584431
0.00670528
0.00709749
0.00697579
0.00626118
0.00496562
0.00367549
0.00325866
0.00347041
0.00347326
0.00134927
0.00108821
0.0024288
0.00150518
0.00209671
0.0034321
0.004804
0.00582027
0.00637502
0.00639308
0.00581177
0.00462195
0.00343986
0.00313512
0.00344666
0.00355831
0.00137526
0.0013272
0.00250493
0.00141015
0.00213442
0.0035651
0.00472957
0.00540661
0.00555707
0.00519613
0.00421843
0.00320786
0.00302337
0.00342094
0.00361196
0.00140086
0.00156063
0.00365594
0.00162144
0.00177771
0.00326844
0.00403438
0.0042885
0.00430389
0.00373801
0.00299476
0.00294216
0.00340959
0.0036595
0.00142723
0.00204736
0.00591959
0.00251667
0.0017469
0.00241122
0.00271387
0.00310589
0.00315565
0.00280498
0.00290212
0.00342191
0.00371677
0.00145515
0.00228449
0.00595835
0.00294035
0.0018617
0.0018623
0.00209904
0.00252008
0.00263691
0.00290552
0.00346327
0.00379145
0.0014859
0.00236439
0.00657338
0.00359292
0.0023041
0.00196634
0.00209221
0.00250427
0.0029524
0.00353609
0.0038877
0.00152044
0.0024155
0.00658555
0.00401464
0.00277662
0.00222644
0.00247762
0.00305233
0.00364398
0.00400856
0.00155955
0.00248184
0.00613066
0.00417703
0.00306943
0.0027237
0.00324083
0.00379987
0.00415672
0.00160433
0.00237559
0.0052122
0.0043842
0.00348513
0.00360101
0.0040376
0.00433509
0.00165734
0.00227492
0.00553097
0.00497579
0.00431695
0.00442544
0.00455957
0.00172423
0.00225501
0.00585515
0.00599932
0.0051039
0.00484454
0.0018132
0.00243053
0.0062469
0.0066369
0.00522871
0.0019331
0.00250091
0.0069204
0.00612148
0.00208766
0.00248465
0.00725458
0.00226992
0.0024649
0.00246023
0.00230422
)
;

boundaryField
{
    floor
    {
        type            compressible::alphatWallFunction;
        Prt             0.85;
        value           nonuniform List<scalar> 
36
(
0.000212626
0.000145208
0.000157499
0.000161076
0.000159526
0.000154797
0.000147391
0.000139583
0.000132144
0.000125245
0.000118888
0.000113017
0.000107582
0.000102496
9.75849e-05
9.26013e-05
8.70811e-05
8.1087e-05
7.03488e-05
7.03479e-05
8.68803e-05
9.72425e-05
0.000106329
0.000122317
0.000159365
0.000154543
0.000212624
0.000232174
0.000226255
0.000221807
0.000145207
0.000221804
0.000199442
0.000262221
0.000240208
0.00026598
)
;
    }
    ceiling
    {
        type            compressible::alphatWallFunction;
        Prt             0.85;
        value           nonuniform List<scalar> 
43
(
0.000366922
0.00030321
0.000288182
0.000294844
0.000300776
0.000296725
0.000281849
0.000262551
0.000243413
0.00022585
0.000209727
0.000195225
0.000183156
0.000174394
0.000169234
0.000167376
0.000167672
0.000169347
0.000172041
0.000175436
0.000179227
0.00018315
0.000187013
0.000190718
0.000194269
0.000197756
0.000201336
0.000205114
0.000209262
0.000213908
0.000219153
0.000225131
0.00023216
0.000240955
0.000252572
0.000268153
0.000288152
0.000311598
0.00033591
0.000316099
0.000362821
0.000375285
0.000432512
)
;
    }
    sWall
    {
        type            compressible::alphatWallFunction;
        Prt             0.85;
        value           nonuniform List<scalar> 9(0.000495345 0.000469443 0.000432554 0.000397317 0.00039709 0.000361258 0.0003861 0.000375441 0.000365217);
    }
    nWall
    {
        type            compressible::alphatWallFunction;
        Prt             0.85;
        value           nonuniform List<scalar> 
14
(
0.000154105
0.000187016
0.000218514
0.000323526
0.000330007
0.000338024
0.000324562
0.000311811
0.00030958
0.000332087
0.00034091
0.00033834
0.000335678
0.00031542
)
;
    }
    sideWalls
    {
        type            empty;
    }
    glass1
    {
        type            compressible::alphatWallFunction;
        Prt             0.85;
        value           nonuniform List<scalar> 9(0.000136907 0.000196252 0.0002456 0.000293413 0.00034115 0.000388656 0.000437438 0.000481298 0.000495989);
    }
    glass2
    {
        type            compressible::alphatWallFunction;
        Prt             0.85;
        value           nonuniform List<scalar> 2(0.000280494 0.000311013);
    }
    sun
    {
        type            compressible::alphatWallFunction;
        Prt             0.85;
        value           nonuniform List<scalar> 
14
(
0.000140774
0.000150039
0.000151178
0.000157808
0.000163655
0.000168833
0.000173539
0.000177969
0.000182316
0.000186806
0.000191356
0.000195932
0.000200796
0.000206389
)
;
    }
    Table_master
    {
        type            compressible::alphatWallFunction;
        Prt             0.85;
        value           nonuniform List<scalar> 9(0.000209346 0.000184708 0.000164848 0.000148663 0.000135276 0.000124043 0.000114569 0.000106703 0.000100551);
    }
    Table_slave
    {
        type            compressible::alphatWallFunction;
        Prt             0.85;
        value           nonuniform List<scalar> 9(0.000234296 0.000216173 0.000201745 0.00018947 0.000178761 0.000168937 0.000159484 0.000149903 0.000139308);
    }
    inlet
    {
        type            fixedValue;
        value           uniform 1.94e-05;
    }
    outlet
    {
        type            zeroGradient;
    }
}


// ************************************************************************* //
