/*--------------------------------*- C++ -*----------------------------------*\
  =========                 |
  \\      /  F ield         | OpenFOAM: The Open Source CFD Toolbox
   \\    /   O peration     | Website:  https://openfoam.org
    \\  /    A nd           | Version:  6
     \\/     M anipulation  |
\*---------------------------------------------------------------------------*/
FoamFile
{
    version     2.0;
    format      ascii;
    class       volScalarField;
    location    "1100";
    object      nut;
}
// * * * * * * * * * * * * * * * * * * * * * * * * * * * * * * * * * * * * * //

dimensions      [0 2 -1 0 0 0 0];

internalField   nonuniform List<scalar> 
778
(
0.000850732
0.000906649
0.0012275
0.000913599
0.00219821
0.00155083
0.000954404
0.00185767
0.00303957
0.00187105
0.000990549
0.00208155
0.00218379
0.00415375
0.00219656
0.00102268
0.00224351
0.00294807
0.00207761
0.00565062
0.00252552
0.00105198
0.00241796
0.00323523
0.00333764
0.00206797
0.00741383
0.00286785
0.00107965
0.0025918
0.00350339
0.00372484
0.00324705
0.00247522
0.00911083
0.00317931
0.00110687
0.00275179
0.00374985
0.00397435
0.00382875
0.00278338
0.00346884
0.0104399
0.0032853
0.00113507
0.00288164
0.00396456
0.00415898
0.00401896
0.00370803
0.00226
0.00500655
0.0101042
0.00323912
0.00116372
0.00296225
0.0041409
0.00428
0.00408847
0.00388839
0.00341117
0.00216661
0.0064372
0.00820597
0.00305621
0.0011926
0.00300606
0.00427079
0.0043459
0.00406168
0.00386267
0.00372087
0.00275691
0.0030418
0.00676797
0.00701821
0.0027978
0.00122338
0.00299507
0.00437236
0.00437415
0.00396248
0.00371202
0.00367605
0.0033738
0.0018659
0.00443899
0.00658538
0.00630458
0.00255347
0.00125889
0.00288945
0.00449427
0.00441129
0.00384183
0.00346909
0.00348235
0.00346105
0.00215118
0.00281494
0.00519989
0.00635702
0.00559454
0.00255158
0.0012986
0.00260846
0.00463916
0.00454535
0.00378907
0.00321706
0.00316652
0.00332507
0.00254236
0.00207459
0.00394174
0.00555507
0.00604042
0.00556134
0.00230605
0.00205842
0.00478616
0.0048088
0.00389244
0.00311132
0.002784
0.0029799
0.00263254
0.00187063
0.00312687
0.0047014
0.00568049
0.00611466
0.00239016
0.00142395
0.00486246
0.00521064
0.00417916
0.00322829
0.00266345
0.00248105
0.00235682
0.00191153
0.00271603
0.00406557
0.00514495
0.00567999
0.00232179
0.00138568
0.0046148
0.00570754
0.00465202
0.00354913
0.00285143
0.00250204
0.00230647
0.00213309
0.00261475
0.00369433
0.00469628
0.00524065
0.00287758
0.000192471
0.00135702
0.0035489
0.00611424
0.00530133
0.00404019
0.00323562
0.00278612
0.00254592
0.00245352
0.0027676
0.00356778
0.00439659
0.00487645
0.00319994
9.72149e-05
0.00270557
0.00161895
0.00602094
0.0060615
0.00471379
0.00375057
0.00318622
0.0028957
0.00279982
0.00299676
0.00355475
0.00421945
0.00459291
0.0032947
0.00010926
0.000460182
0.00279173
0.00484026
0.00677981
0.00557235
0.00443692
0.00371159
0.00331288
0.00314776
0.00322609
0.00357304
0.00403312
0.00425637
0.00322497
0.000170181
0.000323217
0.00132647
0.00423665
0.00459561
0.00164329
0.0073321
0.00648758
0.00528968
0.00441304
0.00385893
0.00356019
0.00348663
0.00362364
0.00385158
0.00385875
0.00285662
0.000201625
0.000550797
0.0030746
0.0057568
0.00244849
0.00401
0.00178641
0.00377725
0.00714666
0.00733993
0.00622787
0.00529136
0.00460334
0.00414729
0.00389744
0.00382209
0.00381916
0.00362922
0.00268731
0.000574081
0.00191448
0.00655619
0.00695747
0.00183079
0.00237878
0.00188562
0.00147532
0.00561089
0.00744069
0.00789325
0.00711898
0.00625687
0.00553629
0.00497442
0.00457579
0.00432162
0.0041383
0.0038436
0.00310613
0.00187172
0.0046578
0.00909649
0.00831361
0.00187068
0.00231338
0.00121412
0.0032621
0.00657639
0.0077855
0.00815555
0.00779368
0.00715804
0.00654304
0.00599352
0.00553846
0.00519073
0.00492318
0.00464923
0.00425781
0.00407884
0.00752045
0.0104838
0.00903074
0.00184492
0.000876419
0.00219452
0.00454984
0.00689107
0.00799009
0.00830431
0.00817302
0.00784171
0.00744952
0.0070459
0.00666435
0.00634312
0.00610586
0.0059581
0.00595461
0.0065592
0.00955423
0.011095
0.00914519
0.00174758
0.000951861
0.00304014
0.00515364
0.00603828
0.00800178
0.0083441
0.00833257
0.00823243
0.00810007
0.00793057
0.00773566
0.00755654
0.00744764
0.0074766
0.00777516
0.00870946
0.0107215
0.0112625
0.00887291
0.00162143
0.00097394
0.00349771
0.00472918
0.00143525
0.00768039
0.00827512
0.00832934
0.00835846
0.00842488
0.00849111
0.00852983
0.00855826
0.00863082
0.0088284
0.00927276
0.010126
0.0112059
0.0109746
0.00835976
0.00149704
0.000964366
0.00350696
0.00127531
0.00131882
0.00634378
0.00809688
0.00822003
0.00829194
0.00845441
0.00867603
0.00890752
0.00913195
0.0093741
0.00968801
0.0101298
0.0106588
0.010959
0.0102463
0.00766169
0.00138369
0.000935221
0.002767
0.00111949
0.00122694
0.00558324
0.00773792
0.00806147
0.0081244
0.00828498
0.0085466
0.00886141
0.00919238
0.00952782
0.00987081
0.010198
0.0103515
0.0100271
0.00913054
0.00681102
0.00128042
0.000889798
0.00237212
0.000995652
0.00114936
0.00504042
0.00735114
0.00788349
0.0079433
0.00804057
0.00824131
0.00851373
0.00881696
0.0091183
0.00938174
0.00951916
0.00936261
0.0086889
0.00775682
0.00585746
0.00118827
0.000842199
0.00209824
0.000896013
0.00108216
0.00457815
0.00697181
0.00770869
0.00780327
0.00783069
0.00792388
0.00806931
0.00823138
0.0083712
0.00844215
0.00838617
0.00802019
0.00726282
0.00633733
0.00490885
0.00111216
0.000797142
0.00188916
0.000814556
0.00102092
0.00411183
0.00656976
0.00753146
0.00771494
0.00771287
0.00771776
0.0077392
0.00773344
0.00768542
0.00752367
0.00723762
0.00675732
0.00595836
0.00507077
0.00410338
0.0010573
0.000755624
0.00172185
0.000746935
0.000962401
0.00365559
0.00610107
0.00731094
0.00765057
0.00768046
0.00765618
0.00762058
0.00755103
0.00730925
0.00692045
0.00640494
0.00574265
0.0048776
0.00411623
0.00350881
0.00102522
0.000717605
0.00158459
0.000690466
0.000903495
0.00320743
0.00557173
0.00700059
0.00755445
0.00768335
0.00768696
0.0076566
0.00754675
0.00720258
0.00662353
0.00584689
0.00495652
0.00408578
0.00353349
0.0031182
0.0010138
0.000682705
0.00146364
0.00064399
0.000838873
0.00275715
0.00498214
0.00658079
0.00737036
0.00764958
0.00772699
0.00772532
0.00758526
0.00719046
0.00646422
0.00545363
0.00439649
0.00359675
0.00321798
0.00287624
0.00101574
0.000650588
0.00134388
0.000607933
0.000769831
0.00228692
0.00432889
0.00604082
0.00706152
0.00752561
0.00769621
0.00773409
0.0075917
0.00716911
0.00635808
0.00519625
0.00404915
0.00332523
0.00305285
0.0027354
0.00102627
0.000620705
0.00121741
0.000669992
0.000766699
0.00175813
0.00360637
0.00537717
0.00660772
0.00727607
0.00757012
0.0076479
0.00752394
0.00711106
0.00627573
0.00504586
0.00384851
0.00317665
0.00297242
0.00266948
0.00104312
0.000592013
0.00109783
0.000780294
0.00118195
0.00131438
0.00281277
0.00459227
0.00600224
0.00688122
0.0073293
0.00748329
0.00738846
0.0069991
0.00618813
0.00494787
0.00372394
0.00309111
0.00294476
0.00266504
0.00106433
0.000563072
0.000990194
0.00112634
0.000643411
0.00125177
0.00206449
0.00370497
0.00524896
0.0063333
0.00695823
0.00722749
0.00719521
0.00684055
0.00606323
0.00484701
0.00362009
0.00303195
0.00294971
0.00271084
0.00108802
0.000531225
0.00103815
0.000590163
0.000917386
0.00154475
0.00281187
0.00437021
0.00563475
0.00644763
0.00686211
0.00692836
0.006632
0.005892
0.00470465
0.00349847
0.00297286
0.00296871
0.00279238
0.00111255
0.000496907
0.000530147
0.000738351
0.00114197
0.00202873
0.00343933
0.00480385
0.00579633
0.00637337
0.00656692
0.00635541
0.00566708
0.00450874
0.00334281
0.00289612
0.00298366
0.00289073
0.00113673
0.000436142
0.000963944
0.00118995
0.00146933
0.00254436
0.00389096
0.00501442
0.00575344
0.0060904
0.00598647
0.00537376
0.0042624
0.00315561
0.00279855
0.00298146
0.00298492
0.00115996
0.000934434
0.00208474
0.00129181
0.00179924
0.00294486
0.00412193
0.00499408
0.0054704
0.00548633
0.00498797
0.00396734
0.00295326
0.00269241
0.00296098
0.00305791
0.00118227
0.0011397
0.00214998
0.0012102
0.00183158
0.00305908
0.00405827
0.00463942
0.00476886
0.00445953
0.00362092
0.00275406
0.00259643
0.00293884
0.00310394
0.00120426
0.00134007
0.003138
0.00139155
0.00152553
0.00280466
0.00346198
0.00368025
0.00369376
0.00320852
0.0025711
0.00252671
0.00292909
0.00314475
0.0012269
0.00175906
0.00508183
0.00216041
0.0014992
0.00206926
0.00232905
0.00266564
0.00270865
0.00240817
0.00249235
0.00293972
0.00319396
0.0012509
0.00196392
0.00511803
0.00252435
0.00159799
0.00159846
0.00180164
0.00216315
0.00226389
0.00249531
0.00297533
0.00325819
0.00127734
0.00203265
0.0056466
0.0030852
0.00197828
0.00168807
0.00179601
0.00215004
0.00253562
0.003038
0.003341
0.00130705
0.00207663
0.00565759
0.00344845
0.0023846
0.00191158
0.00212726
0.00262148
0.00313081
0.003445
0.00134072
0.00213369
0.00526813
0.00358899
0.00263625
0.0023388
0.00278344
0.00326487
0.00357251
0.00137927
0.00204254
0.00448011
0.00376713
0.00299332
0.00309294
0.00346925
0.003726
0.00142493
0.00195618
0.0047542
0.00427519
0.0037083
0.00380264
0.00391916
0.00148254
0.00193903
0.00503226
0.00515469
0.00438584
0.00416437
0.00155914
0.00208954
0.00536858
0.00570367
0.00449487
0.00166235
0.00214991
0.00594802
0.0052625
0.00179535
0.00213615
0.00623651
0.00195212
0.00211949
0.00211578
0.00198172
)
;

boundaryField
{
    floor
    {
        type            nutkWallFunction;
        Cmu             0.09;
        kappa           0.41;
        E               9.8;
        value           nonuniform List<scalar> 
36
(
0.000155296
0.000106081
0.000115038
0.000117645
0.000116515
0.000113066
0.000107665
0.000101971
9.65459e-05
9.15145e-05
8.68783e-05
8.25962e-05
7.86323e-05
7.49228e-05
7.13404e-05
6.77051e-05
6.36776e-05
5.9304e-05
5.14657e-05
5.14657e-05
6.35405e-05
7.11076e-05
7.77418e-05
8.94122e-05
0.000116461
0.000112971
0.000155296
0.000169537
0.000165207
0.000161954
0.000106081
0.000161955
0.00014562
0.000191423
0.000175341
0.000194139
)
;
    }
    ceiling
    {
        type            nutkWallFunction;
        Cmu             0.09;
        kappa           0.41;
        E               9.8;
        value           nonuniform List<scalar> 
43
(
0.000267229
0.000220869
0.000209969
0.000214859
0.000219244
0.000216425
0.000205706
0.000191714
0.000177797
0.000165006
0.000153249
0.000142669
0.000133859
0.000127462
0.000123696
0.000122341
0.00012256
0.000123788
0.000125759
0.000128241
0.000131011
0.000133877
0.000136698
0.000139404
0.000141995
0.000144541
0.000147155
0.000149915
0.000152947
0.000156344
0.000160181
0.000164557
0.000169701
0.000176139
0.000184641
0.000196041
0.000210669
0.000227812
0.000245584
0.000231114
0.000266609
0.000275615
0.000308446
)
;
    }
    sWall
    {
        type            nutkWallFunction;
        Cmu             0.09;
        kappa           0.41;
        E               9.8;
        value           nonuniform List<scalar> 9(0.000365045 0.000346026 0.000318956 0.000293123 0.000292918 0.000266697 0.000281715 0.000274294 0.000267325);
    }
    nWall
    {
        type            nutkWallFunction;
        Cmu             0.09;
        kappa           0.41;
        E               9.8;
        value           nonuniform List<scalar> 
14
(
0.000112978
0.000137036
0.000160043
0.000236987
0.00024173
0.000247595
0.000237773
0.00022847
0.000226835
0.000243253
0.000249691
0.000247835
0.000245922
0.000231149
)
;
    }
    sideWalls
    {
        type            empty;
    }
    glass1
    {
        type            nutkWallFunction;
        Cmu             0.09;
        kappa           0.41;
        E               9.8;
        value           nonuniform List<scalar> 9(0.000103015 0.000147315 0.000184075 0.000219646 0.00025513 0.000290421 0.000326636 0.000359195 0.000370208);
    }
    glass2
    {
        type            nutkWallFunction;
        Cmu             0.09;
        kappa           0.41;
        E               9.8;
        value           nonuniform List<scalar> 2(0.000207082 0.000229575);
    }
    sun
    {
        type            nutkWallFunction;
        Cmu             0.09;
        kappa           0.41;
        E               9.8;
        value           nonuniform List<scalar> 
14
(
0.000102991
0.000109666
0.000110492
0.00011533
0.000119596
0.000123373
0.000126806
0.000130036
0.000133207
0.000136481
0.000139798
0.000143134
0.000146678
0.000150753
)
;
    }
    Table_master
    {
        type            nutkWallFunction;
        Cmu             0.09;
        kappa           0.41;
        E               9.8;
        value           nonuniform List<scalar> 9(0.000152629 0.00013467 0.000120194 0.000108396 9.86386e-05 9.04512e-05 8.3547e-05 7.78142e-05 7.33324e-05);
    }
    Table_slave
    {
        type            nutkWallFunction;
        Cmu             0.09;
        kappa           0.41;
        E               9.8;
        value           nonuniform List<scalar> 9(0.00017081 0.000157599 0.000147083 0.000138135 0.000130329 0.000123168 0.000116277 0.000109293 0.00010157);
    }
    inlet
    {
        type            calculated;
        value           uniform 0.000528271;
    }
    outlet
    {
        type            calculated;
        value           nonuniform List<scalar> 2(0.00244849 0.00423665);
    }
}


// ************************************************************************* //
