/*--------------------------------*- C++ -*----------------------------------*\
  =========                 |
  \\      /  F ield         | OpenFOAM: The Open Source CFD Toolbox
   \\    /   O peration     | Website:  https://openfoam.org
    \\  /    A nd           | Version:  6
     \\/     M anipulation  |
\*---------------------------------------------------------------------------*/
FoamFile
{
    version     2.0;
    format      ascii;
    class       volScalarField;
    location    "1100";
    object      nut;
}
// * * * * * * * * * * * * * * * * * * * * * * * * * * * * * * * * * * * * * //

dimensions      [0 2 -1 0 0 0 0];

internalField   nonuniform List<scalar> 
662
(
0.000941953
0.00101217
0.00102403
0.00107127
0.00111537
0.00115696
0.00119783
0.00124019
0.0012836
0.00132424
0.00135729
0.00137245
0.00135319
0.00127666
0.00105156
0.0004583
0.000537799
0.000601082
0.00061269
0.000598231
0.000561037
0.000520612
0.000484247
0.000452489
0.00042468
0.000400304
0.000378868
0.00035967
0.00034203
0.000325164
0.000308144
0.000300594
0.000278843
0.00131488
0.00264273
0.00233374
0.00268013
0.00298869
0.00331568
0.00364022
0.00392422
0.00418519
0.00449726
0.00484618
0.00518325
0.00542799
0.00545063
0.0048275
0.00123227
0.00101429
0.000833626
0.000462364
0.00103835
0.00146083
0.0017886
0.00189696
0.00142794
0.00122045
0.00107707
0.000970056
0.000887388
0.000819944
0.000759018
0.000701833
0.000645555
0.000596386
0.000551489
0.000685073
0.000381045
0.00165109
0.00369611
0.002613
0.00342926
0.00372204
0.00390413
0.004013
0.00408656
0.00418943
0.00440059
0.00473414
0.00518204
0.00568045
0.00604292
0.00598371
0.00492684
0.00388103
0.000965998
0.000745538
0.00121539
0.00167109
0.00211831
0.00225063
0.000749139
0.000660003
0.000585679
0.00052531
0.000476467
0.000436821
0.000404585
0.0003784
0.000357805
0.000393834
0.000447907
0.000800674
0.000456271
0.00199432
0.00515319
0.00257457
0.00352687
0.0038584
0.00384978
0.00370481
0.00355858
0.00352973
0.00366079
0.00397395
0.00449724
0.00517003
0.00571245
0.00596502
0.00578369
0.0050632
0.00276273
0.00112734
0.00148438
0.00196929
0.00251268
0.00296264
0.00295725
0.000827438
0.000759424
0.000715477
0.000684876
0.000659729
0.000633916
0.000607955
0.00058038
0.000547653
0.000519001
0.000511075
0.000965289
0.000526092
0.00233402
0.00680052
0.00335426
0.00318555
0.00375189
0.00378385
0.00353389
0.00321893
0.00308478
0.00317211
0.0034698
0.00403951
0.00479975
0.00532165
0.00556585
0.00557432
0.00531527
0.00437669
0.00409656
0.00399922
0.00411034
0.004272
0.00435017
0.00422898
0.00360522
0.00331088
0.00316557
0.00306579
0.00295842
0.00281154
0.002545
0.00218197
0.00176015
0.00134669
0.0010083
0.000936988
0.000880886
0.000713159
0.000750749
0.000812873
0.00272609
0.00835508
0.00523504
0.00331686
0.00321479
0.00341048
0.00344486
0.00322006
0.00296186
0.00301245
0.00329796
0.00389306
0.00463667
0.00509575
0.00524201
0.00517737
0.00510574
0.00503245
0.00517902
0.00535574
0.00543394
0.00536563
0.00516587
0.00486483
0.00450635
0.00424618
0.00406252
0.00390753
0.00375402
0.00358768
0.00337795
0.0030589
0.0026323
0.00212806
0.00164519
0.00116311
0.00100589
0.000917868
0.00117153
0.00084138
0.00128254
0.00397055
0.00506871
0.00427705
0.00346463
0.00313144
0.00310256
0.00314142
0.00304012
0.00300851
0.00318717
0.00372673
0.00469627
0.00506528
0.00512181
0.00498701
0.00506424
0.00544227
0.00581686
0.0059743
0.00588546
0.00560034
0.00519526
0.00474758
0.00435156
0.00408239
0.00390655
0.00377003
0.00364734
0.00353229
0.00342541
0.00328433
0.00299776
0.00258396
0.00214733
0.00170852
0.00144275
0.00134311
0.00127794
0.00097839
0.00101233
0.00203632
0.00291282
0.00352073
0.00374624
0.00362074
0.00339822
0.00323914
0.00309957
0.00306
0.00334823
0.00400156
0.00487897
0.00516016
0.00514564
0.00504484
0.00534761
0.00568569
0.00584516
0.0057693
0.00546804
0.00501315
0.00450752
0.00405584
0.00373205
0.00353573
0.0034137
0.00332726
0.00326527
0.00323126
0.00323425
0.0032726
0.00325146
0.00299463
0.00274876
0.00261976
0.00268998
0.00280748
0.00347928
0.00150902
0.000276358
0.0013478
0.00217756
0.00268774
0.00289692
0.00293158
0.00295073
0.00318692
0.00380435
0.00451792
0.00504589
0.00526725
0.00522387
0.00518193
0.0052306
0.00522409
0.00510351
0.00482804
0.00442159
0.00396981
0.00356709
0.00326688
0.00306814
0.00293706
0.00283975
0.00275785
0.00268403
0.0026146
0.00254587
0.00247386
0.00240547
0.00234688
0.00231405
0.00230482
0.00227083
0.00217557
0.00203701
0.00141744
0.00059121
0.000684046
0.00130111
0.00195245
0.00243796
0.00280873
0.0032522
0.00393807
0.00465552
0.00493442
0.00484707
0.00525105
0.00512999
0.00484837
0.00454387
0.00428402
0.00402788
0.00373619
0.00342591
0.00314106
0.0029116
0.00274024
0.0026136
0.00251614
0.00243707
0.00237131
0.00231782
0.00227853
0.002258
0.00226238
0.00228492
0.0023151
0.00234872
0.00237002
0.00235548
0.00229543
0.00205918
0.00117733
0.00104843
0.00256796
0.00129
0.00117721
0.00180872
0.00254347
0.00320848
0.00387018
0.00448871
0.00486667
0.00491025
0.00421809
0.00365774
0.00400206
0.00393546
0.00371115
0.0034905
0.00329236
0.00309698
0.00289615
0.00270005
0.00252291
0.00237341
0.00225423
0.00216532
0.00210615
0.00207611
0.00207335
0.00209374
0.00213006
0.00217758
0.00224636
0.00232973
0.00242034
0.00250675
0.00257459
0.00263226
0.00274712
0.00186312
0.00121967
0.000818287
0.00183969
0.00247686
0.0029521
0.00335435
0.00368166
0.0039092
0.00399163
0.00385263
0.00354031
0.00286233
0.00153402
0.000793991
0.000783205
0.000766577
0.000747281
0.000730657
0.000716182
0.000703081
0.000692232
0.000684888
0.000681992
0.00068398
0.000690906
0.000702646
0.000719047
0.000740018
0.000765634
0.000796282
0.000832914
0.000876555
0.000926077
0.000981751
0.00104346
0.00111075
0.0011838
0.0012263
0.00111482
0.00104556
0.00118708
0.00213523
0.00537776
0.00493576
0.00384872
0.00325139
0.00310322
0.00313016
0.003092
0.00301223
0.0030606
0.00341439
0.00409648
0.0015903
0.00255405
0.00324654
0.00369107
0.00371118
0.00350715
0.00330812
0.00316719
0.00305419
0.00315046
0.0036454
0.00436099
0.000871709
0.00179743
0.00247499
0.00282327
0.00292703
0.00293171
0.00302435
0.00345359
0.00418201
0.00477386
0.000509294
0.000964687
0.00164202
0.00221721
0.00262796
0.00300829
0.00356925
0.00431954
0.00487346
0.00491651
0.00285159
0.0021159
0.0010122
0.00147584
0.0021993
0.00287869
0.00353938
0.00419331
0.00470971
0.00495208
0.0046616
0.00389695
0.00196715
0.00215
0.00276445
0.00315915
0.00353174
0.00380848
0.00397642
0.00395017
0.00371571
0.00327567
0.00226001
0.00102663
0.00133771
0.00266425
0.00393003
0.00424787
0.00393657
0.00350146
0.00323807
0.0031594
0.0030793
0.00303576
0.00324276
0.00382921
0.00106526
0.00117472
0.00158885
0.00235405
0.00298151
0.00324451
0.00324367
0.00314925
0.00304497
0.00309122
0.00352359
0.00423672
0.000479113
0.000799253
0.00157602
0.00220605
0.00257422
0.00276266
0.00296334
0.00345016
0.00420566
0.00478873
0.000488294
0.000772712
0.00136148
0.00202741
0.00262447
0.0032
0.00385803
0.00451694
0.00496569
0.00479162
0.00105731
0.00243096
0.00203059
0.00208577
0.00269188
0.00331614
0.00387592
0.00436682
0.00465364
0.00466701
0.00429051
0.00312634
0.000969469
0.000893475
0.00094624
0.000982333
0.00097845
0.000938684
0.000867476
0.000763338
0.000643652
0.000543828
0.000444023
0.000372542
0.00184708
0.00352339
0.00421045
0.00414264
0.00370748
0.00334095
0.0031818
0.00312343
0.00304243
0.00309282
0.00349603
0.00419974
0.00108955
0.00119342
0.00196466
0.00270976
0.00315652
0.00326544
0.00320028
0.00309421
0.00303192
0.00325306
0.00387117
0.00456279
0.000476333
0.00118735
0.00192285
0.00242066
0.00268173
0.00284248
0.0031614
0.0038144
0.00455065
0.00492093
0.000551155
0.00104512
0.00169778
0.00233564
0.00290668
0.00351928
0.00419661
0.00479024
0.00497188
0.00459379
0.00274327
0.00234156
0.00193696
0.00237684
0.0030195
0.0036011
0.00414668
0.00453838
0.00469526
0.00456145
0.00378075
0.00274732
0.000869739
0.000923248
0.000966533
0.00098577
0.000962534
0.000907144
0.000819196
0.000702865
0.000590897
0.000496609
0.00039412
0.000379409
)
;

boundaryField
{
    floor
    {
        type            nutkWallFunction;
        Cmu             0.09;
        kappa           0.41;
        E               9.8;
        value           nonuniform List<scalar> 
36
(
0.000126763
5.43596e-05
6.45257e-05
7.24843e-05
7.39324e-05
7.21274e-05
6.74601e-05
6.23441e-05
5.76998e-05
5.36082e-05
4.99957e-05
4.68045e-05
4.39776e-05
4.14285e-05
3.90707e-05
3.68016e-05
3.4496e-05
3.3468e-05
3.04866e-05
3.04865e-05
4.42659e-05
5.4098e-05
6.30414e-05
8.63399e-05
9.09263e-05
9.84479e-05
0.000126763
0.000147703
0.000122394
0.000100942
5.43596e-05
0.000100942
5.48845e-05
0.000116706
9.0293e-05
0.000135589
)
;
    }
    ceiling
    {
        type            nutkWallFunction;
        Cmu             0.09;
        kappa           0.41;
        E               9.8;
        value           nonuniform List<scalar> 
58
(
0.00010526
0.000111629
0.00011675
0.000119019
0.000116284
0.000109725
9.92084e-05
8.50836e-05
7.12176e-05
5.92913e-05
4.59983e-05
4.40542e-05
9.61691e-05
9.48655e-05
9.28507e-05
9.05057e-05
8.84798e-05
8.67114e-05
8.5107e-05
8.37759e-05
8.28731e-05
8.25168e-05
8.27612e-05
8.36124e-05
8.50531e-05
8.7061e-05
8.96206e-05
9.27356e-05
9.64465e-05
0.00010086
0.000106089
0.000111985
0.000118571
0.000125821
0.00013367
0.000142132
0.000147027
0.000134145
0.000126067
0.000142513
0.000131243
0.000143276
5.83333e-05
9.90943e-05
0.000108091
0.000114352
0.000118613
0.000118159
0.000113466
0.000104998
9.24588e-05
7.77871e-05
6.52957e-05
5.25197e-05
4.31452e-05
0.000122212
0.000141121
7.13086e-05
)
;
    }
    sWall
    {
        type            nutkWallFunction;
        Cmu             0.09;
        kappa           0.41;
        E               9.8;
        value           nonuniform List<scalar> 4(0.000127415 0.000117105 0.000126377 9.90971e-05);
    }
    nWall
    {
        type            nutkWallFunction;
        Cmu             0.09;
        kappa           0.41;
        E               9.8;
        value           nonuniform List<scalar> 6(9.84487e-05 0.000101878 0.000118178 0.000141397 0.000146277 0.000142523);
    }
    sideWalls
    {
        type            empty;
    }
    glass1
    {
        type            nutkWallFunction;
        Cmu             0.09;
        kappa           0.41;
        E               9.8;
        value           nonuniform List<scalar> 10(0.000113925 0.000157351 0.000195295 0.000233157 0.000269939 0.000311692 0.000159927 0.000128475 0.000153627 0.000122256);
    }
    glass2
    {
        type            nutkWallFunction;
        Cmu             0.09;
        kappa           0.41;
        E               9.8;
        value           nonuniform List<scalar> 2(0.000179225 0.000168896);
    }
    sun
    {
        type            nutkWallFunction;
        Cmu             0.09;
        kappa           0.41;
        E               9.8;
        value           nonuniform List<scalar> 
14
(
0.000113866
0.000122146
0.000123538
0.000129066
0.0001342
0.000139022
0.000143741
0.000148613
0.000153587
0.000158225
0.000161985
0.000163707
0.000161519
0.000152791
)
;
    }
    Table_master
    {
        type            nutkWallFunction;
        Cmu             0.09;
        kappa           0.41;
        E               9.8;
        value           nonuniform List<scalar> 9(9.07287e-05 7.98049e-05 7.05608e-05 6.29472e-05 5.67085e-05 5.1586e-05 4.7378e-05 4.39285e-05 4.1194e-05);
    }
    Table_slave
    {
        type            nutkWallFunction;
        Cmu             0.09;
        kappa           0.41;
        E               9.8;
        value           nonuniform List<scalar> 9(0.000100197 9.19785e-05 8.66223e-05 8.28696e-05 7.9771e-05 7.65752e-05 7.33452e-05 6.98961e-05 6.57764e-05);
    }
    inlet
    {
        type            calculated;
        value           uniform 0.000167705;
    }
    outlet
    {
        type            calculated;
        value           nonuniform List<scalar> 4(0.00285159 0.0021159 0.00105731 0.00256796);
    }
}


// ************************************************************************* //
