/*--------------------------------*- C++ -*----------------------------------*\
  =========                 |
  \\      /  F ield         | OpenFOAM: The Open Source CFD Toolbox
   \\    /   O peration     | Website:  https://openfoam.org
    \\  /    A nd           | Version:  6
     \\/     M anipulation  |
\*---------------------------------------------------------------------------*/
FoamFile
{
    version     2.0;
    format      ascii;
    class       surfaceScalarField;
    location    "1100";
    object      phi;
}
// * * * * * * * * * * * * * * * * * * * * * * * * * * * * * * * * * * * * * //

dimensions      [1 0 -1 0 0 0 0];

internalField   nonuniform List<scalar> 
1482
(
-0.00281871
0.00288275
-0.00354403
0.00072527
-0.00208829
0.00514266
-0.00428706
0.000742982
-0.00301119
0.00164813
-0.00152749
0.00693103
-0.00498034
0.00069323
-0.00388847
0.00162021
-0.00242822
0.00254882
-0.00113044
0.00839694
-0.00557939
0.000598992
-0.00462719
0.0014319
-0.00326626
0.0024582
-0.00195566
0.003374
-0.000817433
0.00961237
-0.00606604
0.000486598
-0.00524822
0.00121997
-0.0039132
0.0020788
-0.00262632
0.00312882
-0.0015804
0.00413693
-0.00057962
0.010643
-0.00642734
0.000361236
-0.00575606
0.000994386
-0.00443928
0.001746
-0.00311181
0.00256425
-0.00203485
0.00358322
-0.0013076
0.00486486
-0.000532803
0.0116716
-0.00664853
0.000221129
-0.00614757
0.000752693
-0.00485894
0.001414
-0.00350031
0.00213446
-0.00234004
0.00286941
-0.00151686
0.00379245
-0.00121418
0.00554621
-0.000516927
0.0127258
-0.00671032
6.17296e-05
-0.00641478
0.000488292
-0.00517524
0.00106896
-0.00380457
0.00171822
-0.00257463
0.00236901
-0.00164971
0.00300222
-0.00108898
0.00366721
-0.00105624
0.00608548
0.00288872
0.0104246
-0.00658474
-0.00012563
-0.00654616
0.000193059
-0.00538672
0.000699726
-0.00402991
0.00129425
-0.00274615
0.0018897
-0.00173474
0.002454
-0.00105636
0.00296957
-0.000605089
0.00321603
0.00193358
0.00704059
0.00407226
0.00649332
-0.00623517
-0.000349632
-0.00653253
-0.000139306
-0.0054891
0.000295394
-0.00417804
0.000847829
-0.00286078
0.00140885
-0.00177444
0.00192938
-0.00101246
0.00241006
-0.000489883
0.00285433
0.000861765
0.00428782
0.00368345
0.00742935
0.00251424
0.00414346
-0.00561982
-0.000615411
-0.00636989
-0.000512318
-0.00547577
-0.000152666
-0.00424566
0.000362974
-0.00292324
0.00091026
-0.00177494
0.00140931
-0.000943504
0.00186039
-0.000376916
0.00229707
0.000462724
0.00325335
0.00255796
0.00541327
0.00340376
0.00653979
0.00157001
0.00276671
-0.00464396
-0.000975915
-0.00604113
-0.000944208
-0.00533519
-0.000652935
-0.00422279
-0.000175564
-0.00293434
0.000374051
-0.0017416
0.000876894
-0.000852862
0.00131865
-0.000234066
0.00171752
0.000378974
0.00238079
0.00196096
0.00385032
0.00333372
0.00548327
0.00288923
0.00522051
0.00231736
0.000673879
-0.00299441
-0.0016496
-0.00552898
-0.00148812
-0.0050545
-0.00122493
-0.00409789
-0.000777858
-0.00288549
-0.000224443
-0.00167864
0.000311076
-0.000742193
0.000766203
-7.31538e-05
0.00115771
0.000484983
0.00161148
0.00166805
0.00267368
0.0031435
0.0040405
0.00356631
0.00480615
0.0031227
0.00441513
-0.00156258
0.00248057
-0.00299155
-0.00502747
-0.00215115
-0.00465956
-0.00188309
-0.00386471
-0.00145814
-0.00276668
-0.000896691
-0.00158017
-0.000322936
-0.000601894
0.000170757
9.94926e-05
0.000593538
0.000675142
0.00096753
0.00157778
0.00170173
0.00299308
0.00282408
0.00386111
0.00374566
0.00375102
0.00417778
0.00117201
0.00168048
0.00273652
-0.00558027
-0.00243881
-0.00428742
-0.00252333
-0.00353821
-0.00220962
-0.0025679
-0.00165695
-0.00144043
-0.00103647
-0.000429228
-0.000495626
0.000311061
-4.08302e-05
0.000914949
0.000353713
0.00165421
0.000891086
0.00291579
0.00177899
0.0039887
0.00269646
0.00432283
0.0031738
0.00342039
0.00192934
0.00439788
-0.00375633
-0.00181853
-0.00387825
-0.00284802
-0.00315133
-0.00291024
-0.00227388
-0.00250368
-0.00124422
-0.00185319
-0.000227401
-0.00123832
0.000561758
-0.000746342
0.00119066
-0.000316552
0.00186336
0.000144545
0.00294612
0.000860734
0.00405683
0.00171083
0.00467612
0.00234311
0.00445848
0.00213566
0.00477356
0.0015536
-0.00197375
-0.00177699
-0.00282307
-0.00287375
-0.00260287
-0.00339652
-0.00188753
-0.00329665
-0.000961125
-0.00278683
2.06047e-05
-0.00210125
0.000841329
-0.00151792
0.00148921
-0.00104491
0.00214827
-0.000601479
0.00308012
1.05242e-05
0.00413868
0.000778857
0.00488679
0.00150012
0.00500359
0.00179795
0.0053846
0.00152457
0.00837156
0.00485802
-0.00195927
-0.00154892
-0.00305117
-0.00181298
-0.00366368
-0.00137459
-0.00390952
-0.000603873
-0.00365398
0.000307219
-0.00307353
0.00114874
-0.00240872
0.0018214
-0.00185015
0.00247012
-0.00136679
0.00328911
-0.000810488
0.00425685
-0.000107679
0.00504366
0.000621946
0.0053654
0.00113826
0.00571813
0.00146436
0.00632915
0.00356685
0.00367944
0.0013371
-0.00349539
-0.00104449
-0.0038197
-0.0007534
-0.00428494
-0.000172016
-0.00434147
0.000625851
-0.00397272
0.00144548
-0.00337038
0.00216336
-0.00275076
0.00281725
-0.00219732
0.00355829
-0.00163602
0.00442309
-0.000976767
0.00520337
-0.000267433
0.00565193
0.000335367
0.00603896
0.000817369
0.00616015
0.00163322
0.00442539
0.00282085
-0.00414497
0.00795348
-0.00247136
-0.000901499
-0.00363843
-0.000173092
-0.00440006
0.000296693
-0.00475374
0.000958166
-0.00467391
0.00172799
-0.00425538
0.0024727
-0.00367985
0.0031556
-0.00308922
0.00385988
-0.002499
0.00464225
-0.00185525
0.0053937
-0.00116717
0.00593049
-0.000546069
0.00637209
2.17352e-06
0.00638347
0.000593914
0.00397842
0.00208014
-0.00198084
0.000656735
0.00208642
-0.00712315
-0.00718349
0.00802704
-0.00331492
0.00164068
-0.00252687
0.000370901
-0.00418246
0.000737471
-0.00484091
0.0012763
-0.005072
0.00197197
-0.00491806
0.00271466
-0.00449752
0.00342893
-0.00395336
0.00413297
-0.00336247
0.00486882
-0.0027257
0.00558821
-0.00204988
0.00616867
-0.00140547
0.00662054
-0.000794629
0.00648972
-0.000104187
0.00357534
0.000996986
-0.00115836
0.00125768
-0.00600679
-0.000519959
-0.00626349
0.00709782
-0.00619393
-0.00757888
0.00431433
0.0028061
0.0016245
-0.00278995
0.00141862
-0.00357462
0.00116819
-0.00461324
0.00156595
-0.00513066
0.00216128
-0.00526147
0.00286339
-0.00506699
0.00358645
-0.00465525
0.00430101
-0.00412161
0.00501666
-0.0035105
0.00570592
-0.0028436
0.00628033
-0.0021617
0.00666425
-0.00144933
0.00628909
-0.000594048
0.00314612
0.00032507
-0.00111153
0.000950191
-0.0051404
0.000391292
-0.00805127
0.00129941
-0.00182904
0.00158475
0.00123534
0.00202836
0.00204372
-0.00244761
0.00186966
-0.00324101
0.00171103
-0.0041175
0.0018311
-0.00487847
0.00229263
-0.00526214
0.00291113
-0.00530939
0.00360159
-0.00508235
0.0043069
-0.00466138
0.00500197
-0.00410718
0.00565213
-0.00345695
0.00617292
-0.00273641
0.00641701
-0.00191462
0.00576166
-0.0009219
0.00259987
-4.77364e-05
-0.00133103
0.000544611
-0.00470383
0.000513616
-0.0076161
0.000466695
0.00112768
0.0013874
0.00187626
0.00147012
0.00244657
-0.00187301
0.0022023
-0.00278028
0.00207797
-0.00360798
0.0021015
-0.00438796
0.00237433
-0.00496028
0.00286749
-0.00521865
0.0034767
-0.00518469
0.00413216
-0.00490785
0.00478116
-0.00444082
0.00536776
-0.00382307
0.00579364
-0.00307789
0.00585936
-0.0021789
0.00495035
-0.00110328
0.0019329
-0.000254849
-0.00161408
0.000235354
-0.00456089
0.000401667
-0.00706428
0.000470629
0.000780689
0.00173435
0.00105655
0.0022898
0.000978784
0.0027853
-0.00131755
0.00252263
-0.00219337
0.00233032
-0.00303265
0.00228985
-0.00379635
0.00242195
-0.00443565
0.00275283
-0.00484573
0.00323628
-0.0049784
0.00379506
-0.0048478
0.00435945
-0.00448637
0.00485101
-0.0039243
0.0051507
-0.00318032
0.00503366
-0.0022523
0.00395186
-0.00118034
0.00118845
-0.000358754
-0.00194034
7.14513e-05
-0.00458989
0.000264356
-0.00662935
0.00125126
0.000628329
0.00216252
0.0007093
0.00255923
0.000476964
0.00311961
-0.00081131
0.00280955
-0.00160449
0.00254133
-0.00240439
0.00240516
-0.00314799
0.00241748
-0.00379193
0.00259035
-0.00427325
0.0029153
-0.00452487
0.0033372
-0.0045207
0.00377841
-0.00426695
0.00414564
-0.00378119
0.00430394
-0.00307769
0.00402144
-0.00216816
0.0028571
-0.00115744
0.000383353
-0.000375145
-0.00232788
2.88372e-05
-0.00469284
0.000174412
-0.00633495
0.00187954
0.000417933
0.00245383
0.000412264
0.00262389
0.00351997
-0.000400555
0.00307187
-0.00107365
0.00272414
-0.00178733
0.00248222
-0.00248146
0.00236961
-0.00310015
0.00239271
-0.00359433
0.00254941
-0.00390744
0.00280761
-0.00399539
0.00309729
-0.00383971
0.00331868
-0.00344012
0.00333225
-0.00280959
0.00291958
-0.00197585
0.0017361
-0.00104707
-0.000447368
-0.000326586
-0.00274687
4.38916e-05
-0.00479948
0.000135502
-0.00613234
0.00229741
0.000250029
0.00261601
0.000149199
0.00247479
0.00372703
-0.000207252
0.00331927
-0.000647993
0.00288221
-0.00123174
0.00253958
-0.00184469
0.00230155
-0.00241342
0.00217741
-0.00288488
0.00216829
-0.00321326
0.00225275
-0.00335265
0.00237563
-0.00327382
0.0024417
-0.00296281
0.0023147
-0.00242263
0.00180503
-0.00169503
0.000642734
-0.000882392
-0.00123568
-0.00025866
-0.00314751
7.41201e-05
-0.0048777
0.000122144
-0.00596957
0.00254738
0.000124231
0.00264093
7.14105e-05
0.00240348
0.00380158
-7.475e-05
0.00345125
-0.000339261
0.00300325
-0.000769059
0.00258378
-0.00127596
0.0022317
-0.00177485
0.00196743
-0.00220345
0.00179823
-0.00251483
0.00171314
-0.00267369
0.00166586
-0.00264292
0.00157784
-0.00241001
0.00132383
-0.00197197
0.000734998
-0.00135257
-0.000361875
-0.000690328
-0.00192137
-0.000196619
-0.00349643
9.03032e-05
-0.00491445
0.000110923
-0.00582045
0.00267156
6.06261e-05
0.00265166
4.3586e-05
0.00236
0.00377171
2.96791e-05
0.003487
-0.000110537
0.00306519
-0.00040122
0.00260983
-0.000795121
0.00216984
-0.00121411
0.00178156
-0.00158898
0.00146621
-0.00187145
0.00122044
-0.00202213
0.00101712
-0.00202497
0.000781667
-0.00184677
0.000412141
-0.00149833
-0.000212584
-0.00102435
-0.0011883
-0.000526087
-0.0024609
-0.000150725
-0.00377281
7.98186e-05
-0.00491315
8.90643e-05
-0.00568241
0.00273212
3.54986e-05
0.00265968
2.91823e-05
0.00233091
0.00365005
0.000121476
0.00344198
7.46696e-05
0.00306553
-0.000110908
0.0026101
-0.000401512
0.00211656
-0.00074185
0.00163144
-0.001064
0.00119065
-0.00131343
0.00080859
-0.00145961
0.000463093
-0.00146811
0.000106119
-0.00134942
-0.000335454
-0.00109917
-0.000948407
-0.000762488
-0.00178426
-0.000428346
-0.00284066
-0.000146262
-0.00396288
3.94175e-05
-0.00488761
5.43574e-05
-0.00556588
0.00276755
2.34236e-05
0.00266538
1.87706e-05
0.00231222
0.00344001
0.000209846
0.00332548
0.000237945
0.00301028
0.000129899
0.00257852
-7.93522e-05
0.00206659
-0.000351555
0.00151846
-0.000628874
0.000983349
-0.000856702
0.000491299
-0.000996142
4.0863e-05
-0.00103738
-0.000395124
-0.00096687
-0.000866071
-0.000818801
-0.00143718
-0.000610384
-0.00217044
-0.000376267
-0.00309057
-0.000178372
-0.00407465
-3.44053e-05
-0.0048574
9.321e-06
-0.00548375
0.0027909
1.50252e-05
0.00266905
7.50149e-06
0.00230479
0.00313461
0.000305213
0.00314202
0.000393276
0.00290611
0.000342081
0.00251528
0.000193125
0.00201164
-2.44134e-05
0.00143542
-0.000268523
0.000841253
-0.000486786
0.000274528
-0.000639938
-0.000243999
-0.000711288
-0.000721267
-0.000711241
-0.00119563
-0.000637311
-0.00174138
-0.000514585
-0.00241575
-0.000365046
-0.00324347
-0.000223305
-0.00413467
-0.000118256
-0.00484332
-4.83608e-05
-0.00544658
0.00280584
5.90418e-06
0.00267056
-1.31915e-05
0.00231804
0.00270867
0.000425747
0.0028918
0.0005554
0.00275867
0.000540696
0.00242492
0.000432419
0.00194873
0.000256012
0.00137285
3.81412e-05
0.000751512
-0.000178793
0.000142266
-0.000354536
-0.000415621
-0.000468328
-0.000916296
-0.000516273
-0.00140184
-0.000505038
-0.00193173
-0.000446956
-0.00257067
-0.000359645
-0.00334541
-0.000263048
-0.00417248
-0.000185395
-0.00484933
-0.000112115
-0.00546733
0.00281165
-1.04113e-05
0.00266768
-6.10971e-05
0.00237919
0.00209485
0.000613619
0.00257373
0.000743782
0.00257352
0.000740521
0.00231256
0.000653026
0.00187924
0.000501893
0.00132477
0.000304079
0.000701811
8.78285e-05
7.32039e-05
-0.000109747
-0.000509172
-0.000261003
-0.00103245
-0.000352192
-0.00152976
-0.000388369
-0.00205606
-0.000380726
-0.00267622
-0.000341401
-0.00342235
-0.000282671
-0.00420895
-0.000226505
-0.00487904
-0.000155569
-0.0055523
0.00280114
-4.62381e-05
0.00265272
-0.000202622
0.00258185
-0.0009877
0.00192217
0.00116031
0.0021994
0.000987908
0.00235944
0.000957823
0.00218418
0.000868878
0.00180447
0.000727772
0.00128564
0.000541008
0.000680771
0.000325101
4.98908e-05
0.000111122
-0.000548829
-7.01116e-05
-0.00109441
-0.000199067
-0.00160781
-0.000274173
-0.0021392
-0.00030525
-0.00275326
-0.000303705
-0.00348605
-0.000277696
-0.0042511
-0.000240484
-0.00492955
-0.000175913
-0.00568131
0.00275479
-0.000126414
0.0025764
-0.000583211
0.00217724
-0.00151172
0.00154962
0.00188418
0.00193774
0.00142192
0.00213395
0.00121337
0.00204876
0.00109321
0.00172705
0.000946272
0.0012515
0.000761885
0.000676517
0.00054524
5.70715e-05
0.000317897
-0.000549988
0.000112254
-0.0011156
-4.89508e-05
-0.00164898
-0.000157925
-0.00219279
-0.000220618
-0.00281008
-0.000248462
-0.00353975
-0.000250044
-0.00429887
-0.000229939
-0.0049934
-0.000176623
-0.0058313
0.00262826
-0.000280096
0.00227316
-0.00100597
0.00167137
-0.0020933
0.000974717
0.0026681
0.00176308
0.00205876
0.00198625
0.00156956
0.00192188
0.00134022
0.00165234
0.00116789
0.00122109
0.000976654
0.000681688
0.000756689
8.29272e-05
0.000519358
-0.000524222
0.000292101
-0.00110506
0.000101674
-0.00165931
-3.86665e-05
-0.00222112
-0.000129638
-0.00284957
-0.000181187
-0.00358329
-0.000204988
-0.00434956
-0.000199428
-0.00506164
-0.000161752
-0.00598258
0.00234804
-0.000480839
0.0017479
-0.00137472
0.00095269
-0.00323839
0.00424548
0.00161338
0.00281772
0.0020014
0.00204355
0.00185114
0.00164026
0.0015899
0.00140263
0.00119582
0.00119314
0.000692722
0.000965589
0.000120241
0.000719344
-0.000479175
0.000474277
-0.00106945
0.000256459
-0.00164258
8.49071e-05
-0.00222536
-3.44702e-05
-0.00287184
-0.000107421
-0.00361567
-0.000148905
-0.00439961
-0.000155063
-0.00512604
-0.000135145
-0.00611944
0.00186708
-0.000671065
0.00104413
-0.00226135
0.00269496
0.00316385
0.00218116
0.00263789
0.00188447
0.00201016
0.00156264
0.00166747
0.00117955
0.00141885
0.000708262
0.00117756
0.000164919
0.000920875
-0.000420187
0.000660318
-0.00101334
0.000418123
-0.00160156
0.000215394
-0.00220566
6.51579e-05
-0.0028754
-3.09746e-05
-0.00363554
-8.76404e-05
-0.00444476
-0.000103896
-0.00518036
-0.000100922
-0.00623
0.0011959
-0.00120166
0.00131067
0.00141822
0.00241932
0.00292563
0.002033
0.0024893
0.00159819
0.00197455
0.00118173
0.00166525
0.000727648
0.00139942
0.000214321
0.00112811
-0.000351235
0.00085188
-0.000940836
0.000587769
-0.00153858
0.000355095
-0.0021617
0.000171386
-0.00285756
4.72691e-05
-0.00364125
-2.53387e-05
-0.00447977
-5.27701e-05
-0.00522056
-6.38991e-05
-0.00630649
0.0017593
-0.000420433
0.00182886
0.00200865
0.00224082
0.00271776
0.00173705
0.00235038
0.0012143
0.00194193
0.000750227
0.00164262
0.000265846
0.00134785
-0.000275701
0.00105253
-0.000856207
0.000767201
-0.00145684
0.000505983
-0.00209356
0.000286908
-0.00281526
0.000129039
-0.00362992
3.58872e-05
-0.00449781
-7.41963e-06
-0.00524416
-2.93589e-05
-0.00634602
0.00187713
0.000784423
0.000624
0.00223708
0.00201237
0.00195448
0.00250028
0.00130044
0.00226418
0.000768303
0.00192379
0.000315973
0.00159244
-0.000196918
0.00126902
-0.000764397
0.000960671
-0.00136089
0.000671188
-0.00200258
0.000414938
-0.00274583
0.000217425
-0.0035961
9.5183e-05
-0.00449284
3.08552e-05
-0.00525002
-1.72194e-06
-0.00635101
0.00275775
0.00170384
0.00115723
0.00205947
0.00190734
0.00140619
0.00239448
0.00074717
0.00228526
0.000354521
0.00188518
-0.000117191
0.00151265
-0.000672002
0.00117657
-0.00125725
0.000856973
-0.00189141
0.00055995
-0.00264693
0.000315981
-0.00353379
0.000155099
-0.00446407
6.63971e-05
-0.00523307
1.38063e-05
-0.00632837
0.00456339
0.00170402
0.00151267
0.00145963
0.00185389
0.000440182
0.00270142
0.000352196
0.00228751
-4.16982e-05
0.00180962
-0.00058899
0.00142959
-0.00115687
0.00107614
-0.00176436
0.000729847
-0.00251637
0.000429308
-0.0034365
0.000218661
-0.00440911
0.000100159
-0.00519173
2.50261e-05
-0.00629028
0.00662743
0.00014598
0.00282636
-0.00105268
0.00334695
0.000225864
0.00282763
-7.58318e-07
0.00224644
-0.000537155
0.00175773
-0.00108137
0.00135406
-0.00162851
0.000940219
-0.00235189
0.000565266
-0.00329637
0.000289128
-0.00432292
0.00013253
-0.00512573
3.41947e-05
-0.00624118
0.00715324
-0.00246545
0.00423943
4.61423e-05
0.00352654
3.29919e-06
0.00282324
-0.000557248
0.0022664
-0.00106853
0.00174493
-0.00149655
0.00122208
-0.00215084
0.000739045
-0.00310351
0.000372305
-0.00419689
0.000163144
-0.00503217
3.90613e-05
-0.00618328
0.00479074
-0.000154455
0.00444011
0.000339807
0.00318958
-0.000643687
0.00290928
-0.00116193
0.00235989
-0.00138526
0.00163372
-0.0019074
0.000978529
-0.00284506
0.000480444
-0.0040171
0.000192529
-0.00490426
3.53687e-05
-0.00612104
0.00474886
0.00051272
0.00426688
-0.000670709
0.00321596
-0.00151078
0.00325819
-0.00128987
0.00226477
-0.00160268
0.00132896
-0.00250102
0.000634277
-0.00376218
0.000225479
-0.00472949
1.79119e-05
-0.00606321
0.00538225
-0.000579876
0.00417542
-0.00239382
0.00409889
-0.00123258
0.00320133
-0.00118845
0.00185067
-0.00203084
0.000858554
-0.00339956
0.000271512
-0.00448852
-1.53386e-05
-0.0060237
0.00493736
-0.00253875
0.00432014
-0.00155699
0.00442375
-0.000584043
0.00259727
-0.00135849
0.00117814
-0.0028744
0.000333144
-0.00415766
-5.9195e-05
-0.00601851
0.0025487
-0.0016863
0.00444993
0.000231844
0.00360824
-0.000400311
0.00163904
-0.00208545
0.000388852
-0.00371494
-0.000109459
-0.00605842
0.00102616
0.000901789
0.00378049
0.000836023
0.00237205
-0.000948508
0.000501697
-0.00311173
-0.000214277
-0.00615
0.00209567
0.00163774
0.00297902
0.00039271
0.00103051
-0.00211202
-0.000498031
-0.00634791
0.0039081
0.00102558
0.00234596
-0.000349137
-0.000732527
-0.00683103
0.0051186
0.000528706
0.00146786
-0.00754988
0.00584217
-0.00606922
)
;

boundaryField
{
    floor
    {
        type            calculated;
        value           nonuniform List<scalar> 
36
(
0
0
0
0
0
0
0
0
0
0
0
0
0
0
0
0
0
0
0
-5.83001e-06
-1.56301e-05
-2.44147e-05
-3.24231e-05
-3.39638e-05
-2.81944e-05
-2.78294e-05
-2.91257e-06
-5.45263e-06
-5.63653e-06
-5.78061e-06
-3.97291e-06
-8.74762e-06
-9.67163e-06
-1.28349e-05
-1.40273e-05
-1.53322e-05
)
;
    }
    ceiling
    {
        type            calculated;
        value           nonuniform List<scalar> 
43
(
-4.44777e-05
-5.05404e-05
-5.04226e-05
-4.76367e-05
-4.39562e-05
-3.82841e-05
-3.33319e-05
-3.00918e-05
-2.82324e-05
-2.72836e-05
-2.69628e-05
-2.70734e-05
-2.73952e-05
-2.76771e-05
-2.77289e-05
-2.74843e-05
-2.70248e-05
-2.64557e-05
-2.58736e-05
-2.53622e-05
-2.4975e-05
-2.47281e-05
-2.46038e-05
-2.45608e-05
-2.4545e-05
-2.44978e-05
-2.43626e-05
-2.40916e-05
-2.36582e-05
-2.30522e-05
-2.22723e-05
-2.13223e-05
-2.02101e-05
-1.89506e-05
-1.75801e-05
-1.61818e-05
-1.48921e-05
-1.38558e-05
-1.3138e-05
-1.33451e-05
2.32222e-05
1.90719e-05
-0.000158548
)
;
    }
    sWall
    {
        type            calculated;
        value           nonuniform List<scalar> 9(-0.000141008 -0.000164441 -0.000193301 -0.000224589 -0.000244178 -0.000279236 -0.000441905 -0.000465048 -0.00048506);
    }
    nWall
    {
        type            calculated;
        value           nonuniform List<scalar> 
14
(
-8.9982e-05
-9.61678e-05
-0.00010178
-0.000102919
-0.000112521
-0.000120889
-0.000135159
-0.000150142
-0.000163272
-0.000167287
-0.000174533
-0.000185059
-0.00019517
-0.000214111
)
;
    }
    sideWalls
    {
        type            empty;
        value           nonuniform 0();
    }
    glass1
    {
        type            calculated;
        value           nonuniform List<scalar> 9(-6.40947e-05 -0.000171676 -0.000260941 -0.000335524 -0.000398052 -0.000451017 -0.000495942 -0.000537309 -0.000587546);
    }
    glass2
    {
        type            calculated;
        value           nonuniform List<scalar> 2(-0.000360033 -0.00037986);
    }
    sun
    {
        type            calculated;
        value           uniform 0;
    }
    Table_master
    {
        type            calculated;
        value           nonuniform List<scalar> 9(-1.53796e-07 -1.53923e-07 -1.53956e-07 -1.53975e-07 -1.53986e-07 -1.53989e-07 -1.53982e-07 -1.53954e-07 -1.53874e-07);
    }
    Table_slave
    {
        type            calculated;
        value           nonuniform List<scalar> 9(1.53414e-07 1.53454e-07 1.53446e-07 1.5346e-07 1.53482e-07 1.53534e-07 1.53614e-07 1.53725e-07 1.53874e-07);
    }
    inlet
    {
        type            calculated;
        value           uniform -0.011676;
    }
    outlet
    {
        type            calculated;
        value           nonuniform List<scalar> 2(0.00879188 0.0129902);
    }
}


// ************************************************************************* //
