/*--------------------------------*- C++ -*----------------------------------*=========                 |
  \      /  F ield         | OpenFOAM: The Open Source CFD Toolbox
   \    /   O peration     | Website:  https://openfoam.org
    \  /    A nd           | Version:  6
     \/     M anipulation  |
\*---------------------------------------------------------------------------*/
FoamFile
{
    version     2.0;
    format      ascii;
    class       volScalarField;
    location    "1100";
    object      PPD;
}
// * * * * * * * * * * * * * * * * * * * * * * * * * * * * * * * * * * * * * //

dimensions      [0 0 0 0 0 0 0];

internalField   nonuniform List<scalar> 
458
(
41.44609967489676
29.46870898415068
28.022980086342343
26.772190176654476
25.987544686062947
25.622989091665943
25.72480292930601
26.34028207053619
27.586301279261846
29.70491639682264
32.96597730787636
36.404742667374926
37.18834071858375
37.59457338560882
38.21913880483234
44.12289368793543
43.41794579282146
43.217098575693086
43.56874910854284
43.82040221893049
44.02200249766892
43.7914835534693
43.56817433631116
43.62093170454698
43.72257203858797
43.88160000077507
44.05582606622993
44.28796335490072
44.63114786091207
45.23174084882977
45.66857593603361
45.89768409334005
46.63760314640436
38.010683222689664
30.005588131661852
29.44649237458721
28.177840031698523
27.44247673100783
27.098395780226554
27.142012867364954
27.499438182069312
28.119027343481235
29.208493919383002
31.040736140158444
33.906868698341114
36.997769168343986
37.546692604037744
37.906368092765575
35.82780049359005
35.81624658753786
36.89506551192563
41.64954555878806
42.741136188615364
42.716127263273684
43.1167721574862
43.27038920061407
43.24915227325155
43.25297889912083
43.31433305787591
43.35284210701743
43.36789062504252
43.39145601010372
43.45947050507584
43.51908685961075
43.68376244082765
44.13896326775199
44.577637705694734
44.932133556559684
44.044168747467225
39.59634035883068
29.59587653317685
30.931032095909018
30.235469695768188
29.92671348733387
29.738483393835907
29.75345604243384
29.588729028669064
28.9992543922572
28.503581836549813
28.98212265865179
31.192986423378656
35.55480678272498
37.882349031339075
38.21913880483234
38.363819293562706
38.43541101122687
37.42005851849153
37.11164694794585
40.38193196760517
40.86303324985213
41.32202435536466
41.88150885021034
42.06806655124011
43.24832303722438
43.99678913318417
43.99678913318417
44.02200249766892
44.02200249766892
44.02200249766892
44.04721964420489
44.07244056398224
44.223844825987015
44.40065186218199
44.00074832548074
40.20938028142296
43.48140984835333
29.28684414309629
32.02599578493606
32.53021616222081
33.33664917253907
33.887409110301576
33.9829914431092
32.86316986030242
30.2293050169516
27.84181418368169
27.298089509067623
29.2935329468595
33.59395534138595
38.187394265666555
38.896038430955144
38.96882079712308
37.68515244169517
36.476741591460936
33.99088081555185
37.24782102285117
39.05702621528487
40.382595377341275
41.93891757952634
43.72550706937581
45.134367088227215
44.79892646971635
44.46498973512786
44.39755900852717
44.45619183156369
44.58497862325148
44.92991447066694
45.62942969646646
46.871913240922346
46.817128425278966
46.076054047637996
42.934891277870875
37.965856527433544
48.504683168109324
29.656364856667977
32.84976945464014
34.630519134874675
37.3317049247248
39.69409583614002
40.1826567170531
36.58039266978244
31.268320401382184
27.257590342680274
26.081165944675348
28.140465034561743
32.43410051222715
37.46005571899858
39.89490819153392
39.99283189365677
39.439721277145985
37.99555588252961
37.913508667245125
38.703273175659795
40.306654677953574
42.39933925609421
44.576378743009556
46.700197972518055
48.1500913253978
48.82164327386956
48.838364016412385
48.81023630025571
48.712745417584735
48.55194955137453
48.41156667091918
48.37352599289795
48.35394016858027
47.53176167541647
46.11728016268687
42.11841928534198
42.14822136542068
41.97812562448973
46.45373593829993
40.05996265291876
53.80486129899692
31.02760919173518
34.318094957832926
36.19889521398796
40.459087053595134
44.45120113400287
46.38217694124764
38.09296020759179
31.219889229396358
26.547350091464182
25.256817162811572
27.43850213992701
32.232455623583846
38.02007011155514
41.32262856449745
41.64485903382736
41.52083140837489
41.57042861611414
42.233035199845574
43.30440124423656
45.084004102956555
46.73985377850577
48.201512380418365
49.412342585216855
50.31666402752719
50.91192658209957
51.32640964985153
51.58560137012183
51.66337792940295
51.61152595088893
51.35232424297771
50.989619662001566
50.0435874812004
48.425642596758564
46.46027011306024
42.7054144927057
42.377565419226165
42.00257269138319
43.313292787094376
43.72162253157217
58.82736930027983
35.14803834895672
40.27549145742273
39.13218465713125
41.93277462222732
46.12704447255141
42.82319979833274
36.595929207021356
29.859969360815
25.329678434294266
24.475032420700558
27.43720855110645
33.2738617419171
40.36566458620139
43.29238606124667
43.895973671987385
43.921171820173996
44.223844825987015
45.18576162084821
46.535398014194215
48.047276661258145
49.46396273809805
50.70479937321632
51.63745147406749
52.25992002535837
52.6491722312356
52.856824330031735
52.9347015129347
52.882782958866976
52.701082288208845
52.33775925790918
51.844888354471536
51.2745836389161
50.32925084936822
47.92681698150138
44.59783300993339
43.07690740759225
41.975660983229226
40.51331297129051
46.126677442363125
66.3086695334554
54.80622884571091
51.6267419540617
45.31244225728981
44.177936944897226
43.594516630827734
39.94630235954059
32.98162130675097
26.292203119859508
22.94025348015407
23.70837250750185
28.623789197208737
36.56723971365206
43.77004049757625
45.948631506691655
46.61204757426007
46.84214930872184
47.37991348356309
48.43301794149913
49.696340410565156
50.937823070914256
52.026440426164854
52.83086614722555
53.3760677724234
53.713632076981675
53.843470285371254
53.86943811279736
53.791534784680906
53.635730273804256
53.427998712303264
53.09046679530964
52.62321799149052
52.05237963018165
51.40415655344396
50.67891421192919
49.877173663847515
49.368950177187784
47.8867219117958
43.636797436900316
39.15263628018338
76.57653379882164
69.4660183656816
61.0102652739122
53.22943387317055
48.24042361267378
44.42693006908165
34.63986702712556
24.831812074957426
19.776786681402456
19.74449924278335
24.15267558022998
33.11523074562365
42.94135893550625
47.20052851765116
48.79348506569358
49.48977549016601
49.9546981456181
50.60126662423857
51.50783338485787
52.467504249998356
53.272208820528384
53.92137386914763
54.264173867228486
54.00232571107217
53.688680192119214
53.33785177768683
52.911862100583576
52.44008238366902
51.880620958993305
51.25629613703104
50.540441596212546
49.730298732117106
48.97081969176904
48.061416854513574
47.009465023376315
46.052285641405156
45.437046970124996
45.211445010028285
44.681748701597584
43.011546756007135
59.545207075728335
16.931984879301737
5.776886451799228
5.001458209687996
5.467260135921251
7.297315444117032
11.806436325015369
20.045711962269138
32.19947513285372
42.81618827390102
48.17580071740391
49.30195752012614
49.759810531338985
50.214056498687555
50.78667421337938
51.475692840276025
52.115406756208735
52.571893657755204
52.775154854380716
52.78734772484863
52.635677547609866
52.379275358764
52.03874148716723
51.6315844023064
51.15802510506934
50.65894841551291
50.188305331231334
49.782421357613565
49.47033076747079
49.260747372735445
49.10984445959041
49.0090804250687
48.9027644693049
48.93900406028413
49.50477021067108
51.47599954595296
55.134457624646515
46.8696284578292
60.184605736768354
12.178363147555928
5.001767591235506
7.042433731180012
10.657644143323793
17.75440579582157
28.00835835499109
39.0416522223071
44.02734813620898
46.3090569504616
47.845146507447126
48.744314570661416
49.35069409057909
49.838526665231385
50.301533331915294
50.70205300291463
51.031675638427515
51.287603404244436
51.4378354947257
51.43765432095725
51.37325545665434
51.225902162697714
51.057027763656784
50.87578945294969
50.6916287869284
50.54130052586847
50.41020750897113
50.3501815236398
50.359057861629324
50.50419635510611
50.87348821884315
51.504745263379775
52.17318205361776
52.73569581039135
53.31695172556307
55.233926403799984
52.410370069479214
49.197793259625826
32.08772284737594
32.02390574580129
26.510153624184767
5.9214726375657705
7.867617539785485
17.92032435218522
29.67859717308076
36.73152845519032
41.26303264774951
44.085640177281604
45.912007844578255
47.24428410108923
48.04176753798386
48.512046070170335
48.7779412463751
48.960068944627984
49.05153665983511
49.045330197818885
48.96093040508519
48.845165673093796
48.68213391110102
48.53813197305798
48.39300569423434
48.25181809649884
48.14899902994133
48.09441887839906
48.10220710138478
48.22028731605747
48.42185642896089
48.775146621022415
49.28672692815887
50.0668860739104
51.362180495596604
53.57176062439183
56.85322391667785
57.1639579213629
55.664036223179295
52.3764546315483
49.556930820778774
50.29942497127398
)
;

boundaryField
{
    ".*"
    {
        type            zeroGradient;
    }
}


// ************************************************************************* //
