/*--------------------------------*- C++ -*----------------------------------*\
  =========                 |
  \\      /  F ield         | OpenFOAM: The Open Source CFD Toolbox
   \\    /   O peration     | Website:  https://openfoam.org
    \\  /    A nd           | Version:  6
     \\/     M anipulation  |
\*---------------------------------------------------------------------------*/
FoamFile
{
    version     2.0;
    format      ascii;
    class       volVectorField;
    location    "1100";
    object      U;
}
// * * * * * * * * * * * * * * * * * * * * * * * * * * * * * * * * * * * * * //

dimensions      [0 1 -1 0 0 0 0];

internalField   nonuniform List<vector> 
662
(
(0.0498473 0.0837381 0)
(-0.16358 0.0200057 0)
(-0.179734 0.0156347 0)
(-0.208323 0.0116353 0)
(-0.23127 0.00707242 0)
(-0.248071 0.00213188 0)
(-0.257619 -0.00340657 0)
(-0.25787 -0.00988087 0)
(-0.246334 -0.0178212 0)
(-0.221068 -0.0271558 0)
(-0.181778 -0.0365188 0)
(-0.131979 -0.0431305 0)
(-0.0790734 -0.0431573 0)
(-0.0327443 -0.0333174 0)
(-0.0178505 -0.00428689 0)
(-0.00547829 0.00929036 0)
(-0.0348367 -0.0193365 0)
(-0.0113835 -0.0302417 0)
(0.0169509 -0.0239751 0)
(0.0351841 -0.0165029 0)
(0.0487726 -0.00878964 0)
(0.0565466 -0.00479566 0)
(0.0597281 -0.00338308 0)
(0.0607416 -0.00287682 0)
(0.0610881 -0.00257759 0)
(0.0611206 -0.00233792 0)
(0.0607985 -0.00207465 0)
(0.0599746 -0.00164196 0)
(0.0582136 -0.000708985 0)
(0.0545464 0.00114391 0)
(0.0479421 0.00301054 0)
(0.0444302 0.00407989 0)
(-0.0198893 0.0213641 0)
(0.244243 0.173966 0)
(-0.15939 0.0556712 0)
(-0.143475 0.0475614 0)
(-0.173721 0.0397124 0)
(-0.196199 0.0310098 0)
(-0.212927 0.0212044 0)
(-0.223124 0.00948819 0)
(-0.224937 -0.00510905 0)
(-0.215902 -0.0233226 0)
(-0.194565 -0.0443371 0)
(-0.160597 -0.0647675 0)
(-0.117481 -0.0782999 0)
(-0.0721307 -0.0779125 0)
(-0.0312454 -0.0618194 0)
(0.00312076 -0.031844 0)
(0.0331366 -0.00126978 0)
(0.0517072 0.0328885 0)
(-0.0160479 0.0729871 0)
(0.0775545 0.0416122 0)
(0.0140137 -0.0206264 0)
(0.0272668 -0.036685 0)
(0.0412377 -0.0336325 0)
(0.0528624 -0.0249048 0)
(0.0589628 -0.010598 0)
(0.0603783 -0.00201681 0)
(0.0602924 0.00121577 0)
(0.0603699 0.0024216 0)
(0.0606437 0.00311242 0)
(0.0608385 0.0036025 0)
(0.0608646 0.00400956 0)
(0.0607419 0.00468584 0)
(0.0600284 0.00640148 0)
(0.056652 0.0113086 0)
(0.0479503 0.0151595 0)
(0.0489913 0.0168465 0)
(-0.0663756 0.0467974 0)
(0.422003 0.260852 0)
(-0.188108 0.0908161 0)
(-0.103306 0.0769648 0)
(-0.134046 0.0617323 0)
(-0.153096 0.0471452 0)
(-0.168166 0.0312737 0)
(-0.17857 0.0125183 0)
(-0.182242 -0.0104228 0)
(-0.175713 -0.0385627 0)
(-0.157908 -0.071003 0)
(-0.128552 -0.101974 0)
(-0.0916164 -0.121094 0)
(-0.054168 -0.118376 0)
(-0.0216518 -0.0953725 0)
(0.00599245 -0.0583693 0)
(0.0247649 -0.027155 0)
(0.0337576 0.00493309 0)
(-0.0399173 0.0589107 0)
(0.127292 -0.0136939 0)
(0.0709764 -0.0337807 0)
(0.061497 -0.0407502 0)
(0.0642238 -0.0391698 0)
(0.0683963 -0.034842 0)
(0.0704696 -0.0256141 0)
(0.0624507 -0.0167257 0)
(0.0563381 -0.012018 0)
(0.0542034 -0.00941838 0)
(0.0538296 -0.00774405 0)
(0.0538963 -0.00658939 0)
(0.0542682 -0.00565282 0)
(0.0553247 -0.00456644 0)
(0.0579813 -0.00136298 0)
(0.0567888 0.0148971 0)
(0.0447234 0.0253496 0)
(0.0572801 0.0310055 0)
(-0.108596 0.0717378 0)
(0.575844 0.331396 0)
(-0.235293 0.123459 0)
(-0.0598244 0.100857 0)
(-0.0911184 0.0796808 0)
(-0.103433 0.0620468 0)
(-0.114187 0.0430685 0)
(-0.123278 0.0196148 0)
(-0.128324 -0.0104838 0)
(-0.123662 -0.0482029 0)
(-0.108713 -0.092036 0)
(-0.084224 -0.133368 0)
(-0.0549505 -0.1575 0)
(-0.0272914 -0.151794 0)
(-0.00430533 -0.122079 0)
(0.0151044 -0.07903 0)
(0.0301902 -0.0375537 0)
(0.0478526 0.00327651 0)
(0.0447206 0.0471113 0)
(0.0891527 0.06314 0)
(0.0892607 -0.00471152 0)
(0.0752528 -0.0301223 0)
(0.0695116 -0.0362373 0)
(0.0660462 -0.0359344 0)
(0.0607371 -0.0314986 0)
(0.060991 -0.0194528 0)
(0.0714318 -0.0132616 0)
(0.080465 -0.010013 0)
(0.0864761 -0.00801149 0)
(0.0906078 -0.00626197 0)
(0.0929325 -0.0042552 0)
(0.0920398 -0.00160421 0)
(0.0864073 0.00209206 0)
(0.0742426 0.00738065 0)
(0.0589276 0.0250405 0)
(0.0429474 0.0403226 0)
(0.0661818 0.0518761 0)
(-0.145929 0.0926688 0)
(0.694711 0.390109 0)
(-0.287208 0.142786 0)
(-0.0184786 0.112762 0)
(-0.0461857 0.0888392 0)
(-0.0501462 0.0705901 0)
(-0.0545471 0.0511635 0)
(-0.0604146 0.0259408 0)
(-0.0653301 -0.00854959 0)
(-0.06075 -0.0542773 0)
(-0.0473004 -0.108289 0)
(-0.0285914 -0.157478 0)
(-0.00953682 -0.183878 0)
(0.00606542 -0.173326 0)
(0.0171291 -0.138832 0)
(0.0268554 -0.0940368 0)
(0.0362735 -0.0495227 0)
(0.049308 -0.010735 0)
(0.0644083 0.0115665 0)
(0.0790888 -0.00699843 0)
(0.0788782 -0.0254448 0)
(0.0722368 -0.0317086 0)
(0.0641412 -0.0324001 0)
(0.0570621 -0.0305937 0)
(0.0514266 -0.0255662 0)
(0.0507145 -0.0152859 0)
(0.0550637 -0.0095733 0)
(0.0602181 -0.00743655 0)
(0.0649138 -0.00619152 0)
(0.0691955 -0.00422271 0)
(0.0726585 -0.000595421 0)
(0.0743809 0.00493133 0)
(0.0729418 0.0123018 0)
(0.0681182 0.021948 0)
(0.0610195 0.036832 0)
(0.0490307 0.0533943 0)
(0.0769251 0.0724995 0)
(-0.0127723 0.100102 0)
(0.051271 0.153866 0)
(-0.0892577 0.0762395 0)
(-0.281706 -0.000416359 0)
(0.746797 0.449028 0)
(-0.304437 0.0429649 0)
(0.0348234 0.0749601 0)
(0.00845362 0.0741103 0)
(0.00978327 0.0681991 0)
(0.00860304 0.0537559 0)
(0.00491237 0.0304296 0)
(0.00218511 -0.00554687 0)
(0.00896158 -0.0601471 0)
(0.0216345 -0.121522 0)
(0.0332683 -0.172521 0)
(0.0403057 -0.196309 0)
(0.0421588 -0.181055 0)
(0.0396416 -0.144073 0)
(0.0369446 -0.0986001 0)
(0.0363459 -0.0550766 0)
(0.0402434 -0.020495 0)
(0.0493772 -0.00270029 0)
(0.0557252 -0.00605403 0)
(0.0549129 -0.0143423 0)
(0.0491481 -0.0207561 0)
(0.0418459 -0.0236956 0)
(0.0353413 -0.0238066 0)
(0.0306082 -0.0212819 0)
(0.0292256 -0.0165019 0)
(0.0313586 -0.0137508 0)
(0.0351715 -0.0128717 0)
(0.0396464 -0.0121074 0)
(0.0445027 -0.0100803 0)
(0.0494475 -0.00567657 0)
(0.054494 0.00199852 0)
(0.057501 0.0122722 0)
(0.058683 0.0245266 0)
(0.059718 0.0393565 0)
(0.0582384 0.0558621 0)
(0.0814844 0.077071 0)
(0.0652586 0.088739 0)
(0.0996813 0.0979079 0)
(0.119941 0.0566547 0)
(-0.141731 -0.0339964 0)
(0.812482 0.228367 0)
(0.249948 0.235092 0)
(0.201003 0.102864 0)
(0.135898 0.0823524 0)
(0.0982329 0.0741072 0)
(0.075681 0.060418 0)
(0.0649367 0.0367502 0)
(0.0652885 0.00114903 0)
(0.0764498 -0.0508938 0)
(0.0880806 -0.111379 0)
(0.0939797 -0.164374 0)
(0.0906487 -0.19267 0)
(0.0767161 -0.17058 0)
(0.057277 -0.133399 0)
(0.0392277 -0.089651 0)
(0.0265677 -0.0496081 0)
(0.0209369 -0.0203251 0)
(0.0217099 -0.00593228 0)
(0.0236007 -0.00555078 0)
(0.0224836 -0.0105059 0)
(0.0183638 -0.0153605 0)
(0.012944 -0.0180964 0)
(0.00777059 -0.0189097 0)
(0.00387068 -0.0182728 0)
(0.00234157 -0.0168416 0)
(0.00331032 -0.0163718 0)
(0.00576538 -0.016701 0)
(0.0090546 -0.0167444 0)
(0.013091 -0.0154655 0)
(0.0180378 -0.0117412 0)
(0.0242841 -0.00417798 0)
(0.0331632 0.00759871 0)
(0.0403859 0.0204803 0)
(0.0484343 0.0339964 0)
(0.0565837 0.047655 0)
(0.0776671 0.0644273 0)
(0.0910109 0.0695477 0)
(0.122809 0.0632467 0)
(0.167649 0.0496628 0)
(-0.0188334 0.0941309 0)
(0.583697 0.0049829 0)
(0.287715 0.19927 0)
(0.404486 0.1535 0)
(0.369541 0.149409 0)
(0.301556 0.130782 0)
(0.244499 0.0973701 0)
(0.206249 0.0553185 0)
(0.186725 0.00356848 0)
(0.178285 -0.0558178 0)
(0.172125 -0.113176 0)
(0.158614 -0.156308 0)
(0.134028 -0.173291 0)
(0.0893927 -0.140556 0)
(0.0560476 -0.106566 0)
(0.0252177 -0.0674564 0)
(0.00360914 -0.0339754 0)
(-0.00710198 -0.0130122 0)
(-0.00940753 -0.00507032 0)
(-0.00947235 -0.00482959 0)
(-0.0107245 -0.00788747 0)
(-0.0138431 -0.0110984 0)
(-0.0179977 -0.0133078 0)
(-0.0221781 -0.0146521 0)
(-0.0255935 -0.0155137 0)
(-0.0276862 -0.016277 0)
(-0.0285465 -0.0173584 0)
(-0.028691 -0.0185671 0)
(-0.0284051 -0.0194158 0)
(-0.0276124 -0.0193652 0)
(-0.0259379 -0.0178155 0)
(-0.0225757 -0.0140452 0)
(-0.0148503 -0.00715704 0)
(-0.0005753 0.00312976 0)
(0.0115392 0.0132434 0)
(0.0241041 0.020132 0)
(0.0432822 0.0270148 0)
(0.0605927 0.0227748 0)
(0.0846034 0.00987982 0)
(0.151806 0.0554266 0)
(-0.460087 0.213158 0)
(0.395664 0.143592 0)
(0.404272 0.181826 0)
(0.367123 0.183556 0)
(0.331489 0.145546 0)
(0.298841 0.0891033 0)
(0.273891 0.0256877 0)
(0.250702 -0.0374475 0)
(0.222223 -0.0909416 0)
(0.185178 -0.125071 0)
(0.140377 -0.133724 0)
(0.0708812 -0.0986942 0)
(0.0284234 -0.0695331 0)
(-0.00865538 -0.0370221 0)
(-0.0285835 -0.0170461 0)
(-0.036773 -0.00786934 0)
(-0.0392999 -0.00454509 0)
(-0.040301 -0.00458787 0)
(-0.0419217 -0.00625497 0)
(-0.0446996 -0.00828848 0)
(-0.0482728 -0.0101694 0)
(-0.0521223 -0.0118523 0)
(-0.0558907 -0.0133892 0)
(-0.0594675 -0.0148235 0)
(-0.0630493 -0.0161681 0)
(-0.0669716 -0.0172227 0)
(-0.0715195 -0.0176165 0)
(-0.0769537 -0.0168526 0)
(-0.0836294 -0.0143117 0)
(-0.0920832 -0.00923659 0)
(-0.102818 -0.000840998 0)
(-0.114424 0.0108997 0)
(-0.127971 0.0252632 0)
(-0.151011 0.0421406 0)
(-0.185879 0.0608075 0)
(-0.235105 0.0777841 0)
(-0.292186 0.0904468 0)
(-0.373656 0.0972061 0)
(-0.659058 0.0928628 0)
(0.204644 -0.113164 0)
(0.247577 0.238771 0)
(0.23943 0.203617 0)
(0.242606 0.163493 0)
(0.241141 0.107175 0)
(0.232233 0.0449471 0)
(0.214476 -0.0109994 0)
(0.183366 -0.0535554 0)
(0.140731 -0.0787505 0)
(0.0915606 -0.0839144 0)
(0.0169554 -0.0517841 0)
(-0.0245178 -0.0287938 0)
(-0.0466743 -0.0163108 0)
(-0.0583603 -0.0110143 0)
(-0.0634901 -0.00914656 0)
(-0.0656489 -0.00888247 0)
(-0.0670005 -0.00951646 0)
(-0.0687007 -0.0106471 0)
(-0.0711112 -0.0119393 0)
(-0.0741702 -0.0131878 0)
(-0.0777596 -0.014302 0)
(-0.0818549 -0.0152361 0)
(-0.0865247 -0.0159505 0)
(-0.0918898 -0.0163659 0)
(-0.0980371 -0.0162722 0)
(-0.104935 -0.0153007 0)
(-0.112379 -0.0129308 0)
(-0.119927 -0.00854388 0)
(-0.126851 -0.00149232 0)
(-0.132168 0.00852603 0)
(-0.135834 0.0218693 0)
(-0.138495 0.0391595 0)
(-0.141394 0.0598866 0)
(-0.144929 0.0814574 0)
(-0.144844 0.0964363 0)
(-0.12527 0.0904484 0)
(-0.0696585 0.0346044 0)
(-0.207509 -0.181257 0)
(0.40175 -0.339559 0)
(-0.0908509 -0.482421 0)
(-0.282721 -0.00984501 0)
(-0.110765 0.186816 0)
(-0.0178521 0.170745 0)
(0.0392762 0.138963 0)
(0.0751313 0.0954495 0)
(0.0926923 0.04676 0)
(0.0928357 0.00470041 0)
(0.0774478 -0.0228323 0)
(0.0442836 -0.0360956 0)
(0.00140354 -0.0392753 0)
(-0.0465336 0.00951679 0)
(-0.0689602 0.0270944 0)
(-0.0791157 0.0337077 0)
(-0.083779 0.0365245 0)
(-0.08579 0.0379143 0)
(-0.0867539 0.0387841 0)
(-0.087457 0.0394175 0)
(-0.088321 0.0396951 0)
(-0.0895578 0.0394783 0)
(-0.0912621 0.038715 0)
(-0.0934726 0.0374677 0)
(-0.0961953 0.0358628 0)
(-0.0994103 0.0340208 0)
(-0.103069 0.0320461 0)
(-0.10707 0.0300503 0)
(-0.11124 0.0281436 0)
(-0.115315 0.0264128 0)
(-0.118886 0.0248776 0)
(-0.121164 0.0238742 0)
(-0.120882 0.0253963 0)
(-0.116392 0.0309268 0)
(-0.106352 0.0413335 0)
(-0.0907416 0.0566234 0)
(-0.0710408 0.0739207 0)
(-0.0470514 0.0839991 0)
(0.019296 0.0516561 0)
(0.151215 -0.0557622 0)
(-0.0524031 -0.0616662 0)
(0.282754 -0.24453 0)
(-0.280887 -0.13478 0)
(-0.413185 -0.0127387 0)
(-0.365157 0.0803583 0)
(-0.262976 0.0978529 0)
(-0.167291 0.0886032 0)
(-0.0918524 0.0678111 0)
(-0.0439936 0.042877 0)
(-0.025414 0.0228813 0)
(-0.0309736 0.0155521 0)
(-0.0500251 0.0178846 0)
(-0.0680044 -0.00418691 0)
(-0.0950117 -0.105121 0)
(-0.0985464 -0.106162 0)
(-0.098328 -0.108465 0)
(-0.0974395 -0.112438 0)
(-0.0969785 -0.115903 0)
(-0.0970619 -0.118649 0)
(-0.0976109 -0.120907 0)
(-0.0985893 -0.122516 0)
(-0.100014 -0.123208 0)
(-0.101898 -0.122777 0)
(-0.104218 -0.121153 0)
(-0.106898 -0.118384 0)
(-0.10983 -0.114562 0)
(-0.112868 -0.109772 0)
(-0.115809 -0.10404 0)
(-0.118343 -0.0972933 0)
(-0.120037 -0.0893151 0)
(-0.120322 -0.0796943 0)
(-0.118388 -0.0682539 0)
(-0.112648 -0.0559093 0)
(-0.100472 -0.0424202 0)
(-0.0792386 -0.0272524 0)
(-0.0486025 -0.00975349 0)
(-0.00840255 0.0101563 0)
(0.0367735 0.00953195 0)
(0.106389 -0.0498793 0)
(0.124336 -0.0952137 0)
(-0.522988 0.00494114 0)
(0.476074 0.3856 0)
(0.193963 0.134538 0)
(0.168347 0.0897473 0)
(0.113819 0.0779832 0)
(0.0846123 0.0693831 0)
(0.0683152 0.0512899 0)
(0.0626944 0.0216013 0)
(0.0705397 -0.0230839 0)
(0.0826775 -0.0806512 0)
(0.0919353 -0.13956 0)
(0.0932115 -0.182207 0)
(0.0854808 -0.193701 0)
(0.282875 0.0904599 0)
(0.368544 0.17574 0)
(0.397095 0.149058 0)
(0.335445 0.143158 0)
(0.270823 0.115251 0)
(0.222824 0.0775354 0)
(0.194303 0.0308743 0)
(0.181403 -0.0256643 0)
(0.175646 -0.0853374 0)
(0.166672 -0.137239 0)
(0.147649 -0.168553 0)
(0.118831 -0.169641 0)
(0.379784 0.153739 0)
(0.387057 0.189663 0)
(0.349239 0.167867 0)
(0.314314 0.118777 0)
(0.285433 0.0577237 0)
(0.262837 -0.00643287 0)
(0.237361 -0.0660739 0)
(0.204848 -0.110898 0)
(0.163504 -0.13282 0)
(0.117112 -0.127694 0)
(0.296008 0.259414 0)
(0.239283 0.219074 0)
(0.241181 0.185924 0)
(0.24272 0.136825 0)
(0.237701 0.0760033 0)
(0.224398 0.0156486 0)
(0.200554 -0.0342153 0)
(0.16326 -0.0685395 0)
(0.116562 -0.0839641 0)
(0.06714 -0.0781354 0)
(0.0155923 -0.436019 0)
(-0.253304 -0.353269 0)
(-0.157312 0.149092 0)
(-0.0568267 0.182746 0)
(0.0147955 0.156172 0)
(0.0595964 0.118444 0)
(0.0860873 0.0710351 0)
(0.094956 0.0241544 0)
(0.0875951 -0.0109803 0)
(0.0628726 -0.0311229 0)
(0.0231337 -0.038707 0)
(-0.0150855 -0.0306886 0)
(-0.2442 -0.169921 0)
(-0.372259 -0.0788503 0)
(-0.405384 0.0449302 0)
(-0.314608 0.0947823 0)
(-0.213185 0.0951603 0)
(-0.126436 0.0791873 0)
(-0.0641979 0.0552722 0)
(-0.0310531 0.0316528 0)
(-0.0258764 0.0174546 0)
(-0.0397294 0.0166351 0)
(-0.0598668 0.0141164 0)
(-0.0770595 -0.042315 0)
(0.764277 0.464825 0)
(0.318077 0.265454 0)
(0.348112 0.158077 0)
(0.270982 0.120153 0)
(0.205486 0.0990635 0)
(0.158709 0.0746052 0)
(0.13188 0.0426973 0)
(0.122392 -0.000984912 0)
(0.126214 -0.0562784 0)
(0.131218 -0.115015 0)
(0.128939 -0.16307 0)
(0.115265 -0.185598 0)
(0.783783 -0.177883 0)
(0.154101 0.240818 0)
(0.400632 0.17261 0)
(0.425387 0.179468 0)
(0.364208 0.164313 0)
(0.309803 0.124023 0)
(0.268611 0.0725196 0)
(0.242866 0.0135821 0)
(0.224012 -0.0490126 0)
(0.205345 -0.105099 0)
(0.179193 -0.14359 0)
(0.143386 -0.155799 0)
(0.300328 0.0999834 0)
(0.351671 0.205406 0)
(0.323124 0.195182 0)
(0.306796 0.158712 0)
(0.288693 0.101177 0)
(0.270213 0.0367088 0)
(0.248046 -0.0238464 0)
(0.215243 -0.0727336 0)
(0.172311 -0.102526 0)
(0.123298 -0.108974 0)
(0.445279 0.247423 0)
(0.0722858 0.231263 0)
(0.11902 0.196519 0)
(0.148428 0.157342 0)
(0.165273 0.105708 0)
(0.16827 0.0488791 0)
(0.157916 -0.000871325 0)
(0.133784 -0.0363539 0)
(0.0957537 -0.0563056 0)
(0.0504604 -0.0606596 0)
(0.501105 -0.273149 0)
(-0.195265 -0.255591 0)
(-0.349991 -0.0624794 0)
(-0.256846 0.112485 0)
(-0.152406 0.126131 0)
(-0.0731549 0.10889 0)
(-0.0154758 0.0772059 0)
(0.0196257 0.0388826 0)
(0.03099 0.00703216 0)
(0.0218507 -0.0108991 0)
(-0.00765313 -0.0159595 0)
(-0.0419517 -0.0172427 0)
(0.326795 -0.256807 0)
(-0.356001 -0.16408 0)
(-0.480602 -0.106463 0)
(-0.449969 -0.0555792 0)
(-0.34928 -0.0409127 0)
(-0.242834 -0.0466907 0)
(-0.156747 -0.0641484 0)
(-0.103559 -0.0853223 0)
(-0.0824642 -0.0951435 0)
(-0.0768765 -0.0884091 0)
(-0.0693259 -0.0857851 0)
(-0.0750144 -0.0940693 0)
(0.346424 0.290585 0)
(0.353701 0.203916 0)
(0.310438 0.133278 0)
(0.236021 0.109707 0)
(0.179289 0.0877718 0)
(0.142665 0.060181 0)
(0.124912 0.0229875 0)
(0.123476 -0.0271033 0)
(0.129215 -0.0853497 0)
(0.131325 -0.140794 0)
(0.123528 -0.177887 0)
(0.105318 -0.184242 0)
(-0.225397 0.191095 0)
(0.298312 0.194782 0)
(0.435888 0.169798 0)
(0.39551 0.177173 0)
(0.335634 0.145933 0)
(0.287218 0.0994105 0)
(0.253946 0.0438251 0)
(0.232852 -0.017808 0)
(0.215221 -0.0785706 0)
(0.193497 -0.127162 0)
(0.162377 -0.153336 0)
(0.123371 -0.150475 0)
(0.36813 0.20264 0)
(0.334454 0.202028 0)
(0.31504 0.180608 0)
(0.297851 0.131602 0)
(0.279536 0.0690328 0)
(0.260271 0.00555383 0)
(0.232987 -0.0502826 0)
(0.194895 -0.090352 0)
(0.148156 -0.108845 0)
(0.0978149 -0.102616 0)
(0.0787659 0.222078 0)
(0.0975446 0.214151 0)
(0.13532 0.178509 0)
(0.158539 0.132829 0)
(0.168501 0.0771883 0)
(0.164499 0.0223998 0)
(0.147787 -0.0204896 0)
(0.116278 -0.0483456 0)
(0.0732959 -0.0604356 0)
(0.0275471 -0.0548887 0)
(-0.178291 -0.286238 0)
(-0.309721 -0.184478 0)
(-0.313956 0.0522457 0)
(-0.200537 0.126786 0)
(-0.109727 0.119705 0)
(-0.0415097 0.0943723 0)
(0.00540217 0.0577165 0)
(0.0281754 0.0216161 0)
(0.0291305 -0.00387226 0)
(0.00968836 -0.0146602 0)
(-0.0264317 -0.0164162 0)
(-0.0496531 -0.0151965 0)
(-0.293092 -0.188871 0)
(-0.439423 -0.135755 0)
(-0.48089 -0.0778061 0)
(-0.402963 -0.0445594 0)
(-0.294696 -0.0419889 0)
(-0.196215 -0.0543192 0)
(-0.125709 -0.0751123 0)
(-0.0897176 -0.092625 0)
(-0.0790747 -0.0929416 0)
(-0.0738129 -0.0850369 0)
(-0.0666568 -0.0903019 0)
(-0.0936081 -0.100445 0)
)
;

boundaryField
{
    floor
    {
        type            noSlip;
    }
    ceiling
    {
        type            noSlip;
    }
    sWall
    {
        type            noSlip;
    }
    nWall
    {
        type            noSlip;
    }
    sideWalls
    {
        type            empty;
    }
    glass1
    {
        type            noSlip;
    }
    glass2
    {
        type            noSlip;
    }
    sun
    {
        type            noSlip;
    }
    Table_master
    {
        type            noSlip;
    }
    Table_slave
    {
        type            noSlip;
    }
    inlet
    {
        type            fixedValue;
        value           uniform (0.5 0 0);
    }
    outlet
    {
        type            zeroGradient;
    }
}


// ************************************************************************* //
