/*--------------------------------*- C++ -*----------------------------------*\
  =========                 |
  \\      /  F ield         | OpenFOAM: The Open Source CFD Toolbox
   \\    /   O peration     | Website:  https://openfoam.org
    \\  /    A nd           | Version:  6
     \\/     M anipulation  |
\*---------------------------------------------------------------------------*/
FoamFile
{
    version     2.0;
    format      ascii;
    class       volScalarField;
    location    "1090";
    object      alphat;
}
// * * * * * * * * * * * * * * * * * * * * * * * * * * * * * * * * * * * * * //

dimensions      [1 -1 -1 0 0 0 0];

internalField   nonuniform List<scalar> 
458
(
0.00124414
0.00135527
0.00138596
0.00145229
0.00151338
0.00157123
0.0016291
0.00168785
0.0017359
0.00176611
0.00176954
0.00173741
0.00165867
0.00149196
0.00113182
0.000559124
0.000655494
0.000743181
0.000774903
0.000762765
0.000713776
0.00065958
0.000611089
0.000569087
0.000532605
0.000500748
0.000472872
0.000448154
0.00042564
0.000404287
0.000382846
0.000370098
0.000340114
0.00167647
0.00377413
0.0034814
0.00398901
0.00449514
0.00501581
0.00548306
0.00584446
0.00621581
0.00656357
0.00684261
0.00701207
0.00702773
0.00678274
0.00551195
0.00149411
0.00123953
0.00101125
0.000554603
0.00131634
0.00191844
0.00238451
0.00253187
0.00184521
0.00155771
0.00136208
0.00121771
0.0011071
0.00101933
0.000943635
0.000872516
0.000801525
0.000738113
0.00068494
0.000837917
0.000447104
0.00203698
0.00507211
0.00418628
0.00510411
0.00548989
0.00576079
0.00596904
0.00616135
0.00642928
0.0067552
0.00711144
0.0074604
0.00773558
0.00783139
0.00737861
0.00601337
0.00455717
0.00119441
0.000854259
0.0014742
0.00214513
0.00281241
0.00300293
0.000959375
0.000839911
0.000740516
0.00066001
0.000595042
0.000542392
0.000499595
0.000464984
0.000438062
0.00048543
0.000562185
0.000983174
0.000528374
0.0023838
0.00647793
0.00407212
0.00528748
0.00549849
0.00547732
0.00545774
0.00554992
0.00576805
0.00609083
0.00650094
0.00695805
0.00735784
0.00760858
0.0075511
0.00716006
0.00614498
0.00337362
0.00137597
0.00175183
0.00240811
0.00321176
0.00390843
0.00394259
0.00108053
0.000990429
0.000929055
0.000883757
0.000845453
0.000807378
0.000771233
0.000733044
0.000688411
0.00064844
0.000639026
0.00117178
0.000608553
0.00273785
0.00836875
0.00427111
0.00501897
0.00532043
0.00514
0.00499313
0.00507675
0.00530724
0.00564341
0.00608579
0.00658722
0.00697903
0.00717353
0.00716796
0.00703059
0.0066252
0.00547843
0.00496516
0.00500081
0.00529183
0.00563858
0.00585127
0.00575495
0.00490985
0.00447533
0.00423587
0.00406436
0.0038908
0.00366746
0.0032873
0.00279778
0.002241
0.00170471
0.00127869
0.00119143
0.00103431
0.000813318
0.000860757
0.000935586
0.00311667
0.0104977
0.00584902
0.00464674
0.00506383
0.00505286
0.00486521
0.00493488
0.00517018
0.00550678
0.00595574
0.00643646
0.00679923
0.00691467
0.00680415
0.00664651
0.00657545
0.0064808
0.00667549
0.00701327
0.00725009
0.007292
0.00713207
0.00679779
0.00633108
0.00595192
0.00565669
0.00539662
0.00514117
0.00487004
0.00451985
0.00403971
0.00343243
0.00274557
0.00210988
0.00153005
0.00125758
0.00109693
0.00138121
0.000970515
0.00348932
0.0121022
0.00872482
0.00571075
0.00496922
0.00504012
0.00510346
0.00514033
0.00527419
0.00557142
0.00601342
0.00648989
0.00682229
0.00685869
0.00664932
0.00649786
0.00674683
0.00729944
0.00786199
0.00817923
0.0081796
0.00790706
0.00744584
0.00688456
0.00632551
0.00587557
0.00553489
0.00525855
0.00501685
0.0047998
0.0046024
0.00434422
0.00391979
0.0033526
0.0027635
0.00219754
0.00182813
0.00167471
0.00159628
0.00115312
0.00357894
0.0112147
0.00952696
0.00799847
0.00682879
0.00631058
0.00582365
0.00549396
0.00549015
0.00577422
0.0062314
0.00670191
0.00698126
0.00691629
0.00665976
0.00672336
0.00743529
0.00801947
0.00832358
0.00830929
0.00797886
0.00740767
0.00670501
0.00599635
0.00540736
0.00499452
0.00471604
0.00451604
0.004368
0.00426821
0.0042239
0.00422599
0.00411296
0.00377584
0.0034473
0.00326424
0.00334395
0.00352995
0.00419313
0.00178525
0.00350479
0.00423034
0.00467525
0.00492477
0.00496198
0.00488874
0.00489232
0.00510064
0.00552054
0.00605432
0.00659946
0.00702805
0.00716469
0.00691744
0.00684745
0.00720848
0.00762578
0.0077686
0.00766464
0.00730182
0.00669396
0.00594333
0.00519392
0.00457883
0.00415318
0.00388207
0.0037002
0.00356199
0.00344415
0.00333349
0.00322004
0.00309548
0.00298249
0.00288467
0.00281984
0.00278328
0.00271383
0.00257091
0.00239724
0.00166672
0.00157967
0.00276037
0.00377647
0.00457224
0.0053012
0.00601033
0.00657185
0.00694769
0.00719166
0.00722426
0.00698631
0.00669761
0.00669878
0.00681829
0.00672628
0.0064554
0.00602828
0.00545332
0.00479209
0.00414598
0.0036316
0.00328509
0.0030726
0.00294217
0.00285556
0.00279239
0.00274398
0.00270826
0.00268818
0.00269442
0.00271014
0.00272415
0.00272486
0.00268172
0.00254872
0.00231445
0.0020242
0.00134113
0.00238083
0.00465389
0.00595194
0.0067926
0.00744607
0.00749579
0.0071039
0.00671048
0.00637248
0.00573436
0.0052813
0.00517625
0.00510498
0.00490519
0.00460413
0.00423085
0.00379329
0.00333286
0.00291767
0.00259475
0.00237197
0.0022435
0.00218326
0.00217021
0.00219141
0.00223856
0.00230458
0.00238097
0.00247039
0.00257303
0.00268287
0.00279072
0.00287846
0.00292224
0.00288133
0.00284565
0.00261998
0.00135861
0.00249159
0.00255349
0.00260942
0.0028932
0.00272893
0.00241407
0.00203341
0.00172843
0.0015419
0.00136508
0.00120957
0.0010879
0.0009849
0.000906855
0.000852625
0.000813007
0.000781148
0.000753739
0.000731108
0.000715838
0.000710141
0.000714416
0.000727103
0.000745753
0.000769319
0.000797244
0.000829372
0.00086589
0.000907406
0.00095521
0.00100961
0.00107019
0.00113726
0.00121115
0.00129188
0.00138861
0.00143092
0.00140158
0.00130364
0.00120554
)
;

boundaryField
{
    floor
    {
        type            compressible::alphatWallFunction;
        Prt             0.85;
        value           nonuniform List<scalar> 
36
(
0.000160688
7.82038e-05
9.26097e-05
0.000105494
0.00011011
0.000108347
0.000101196
9.32155e-05
8.60072e-05
7.97068e-05
7.41877e-05
6.93297e-05
6.50471e-05
6.12228e-05
5.77164e-05
5.43688e-05
5.09843e-05
4.89608e-05
4.4165e-05
4.41644e-05
6.10605e-05
7.35458e-05
8.56301e-05
0.000115678
0.000122504
0.000133176
0.000160687
0.000210159
0.000175562
0.000143844
7.82028e-05
0.000143843
7.75201e-05
0.000169349
0.000121556
0.000194195
)
;
    }
    ceiling
    {
        type            compressible::alphatWallFunction;
        Prt             0.85;
        value           nonuniform List<scalar> 
43
(
0.000340273
0.000348136
0.000355226
0.000391031
0.000370433
0.000330532
0.000281525
0.00024154
0.000216706
0.000192851
0.000171579
0.000154717
0.000140272
0.000129208
0.000121455
0.000115754
0.000111146
0.000107163
0.000103861
0.000101626
0.000100791
0.000101418
0.000103276
0.000105999
0.000109429
0.000113478
0.000118114
0.000123358
0.000129289
0.000136078
0.000143755
0.000152249
0.000161589
0.000171804
0.000182885
0.00019606
0.00020179
0.00019782
0.000184495
0.000171037
0.000467122
0.000555328
0.000326052
)
;
    }
    sWall
    {
        type            compressible::alphatWallFunction;
        Prt             0.85;
        value           uniform 0.00033903;
    }
    nWall
    {
        type            compressible::alphatWallFunction;
        Prt             0.85;
        value           nonuniform List<scalar> 6(0.000132957 0.000137898 0.000163429 0.000189266 0.000191643 0.000170696);
    }
    sideWalls
    {
        type            empty;
    }
    glass1
    {
        type            compressible::alphatWallFunction;
        Prt             0.85;
        value           nonuniform List<scalar> 9(0.000171663 0.000229169 0.000275995 0.00032029 0.000364874 0.000411956 0.000457735 0.000468806 0.000459999);
    }
    glass2
    {
        type            compressible::alphatWallFunction;
        Prt             0.85;
        value           nonuniform List<scalar> 2(0.000247086 0.000231545);
    }
    sun
    {
        type            compressible::alphatWallFunction;
        Prt             0.85;
        value           nonuniform List<scalar> 
14
(
0.000176213
0.000191383
0.000195551
0.000204525
0.00021275
0.000220504
0.00022823
0.000236043
0.000242409
0.000246402
0.000246854
0.000242608
0.000232164
0.000209869
)
;
    }
    Table_master
    {
        type            compressible::alphatWallFunction;
        Prt             0.85;
        value           nonuniform List<scalar> 9(0.000136681 0.000119644 0.000105248 9.34178e-05 8.37422e-05 7.58055e-05 6.92832e-05 6.3957e-05 5.97794e-05);
    }
    Table_slave
    {
        type            compressible::alphatWallFunction;
        Prt             0.85;
        value           nonuniform List<scalar> 9(0.000153711 0.000141071 0.000132385 0.000125931 0.000120443 0.000114958 0.000109723 0.000104159 9.76126e-05);
    }
    inlet
    {
        type            fixedValue;
        value           uniform 1.94e-05;
    }
    outlet
    {
        type            zeroGradient;
    }
}


// ************************************************************************* //
