/*--------------------------------*- C++ -*----------------------------------*\
  =========                 |
  \\      /  F ield         | OpenFOAM: The Open Source CFD Toolbox
   \\    /   O peration     | Website:  https://openfoam.org
    \\  /    A nd           | Version:  6
     \\/     M anipulation  |
\*---------------------------------------------------------------------------*/
FoamFile
{
    version     2.0;
    format      ascii;
    class       volScalarField;
    location    "2610";
    object      alphat;
}
// * * * * * * * * * * * * * * * * * * * * * * * * * * * * * * * * * * * * * //

dimensions      [1 -1 -1 0 0 0 0];

internalField   nonuniform List<scalar> 
458
(
0.00124408
0.00135521
0.00138589
0.00145221
0.00151329
0.00157113
0.001629
0.00168774
0.00173579
0.001766
0.00176945
0.00173736
0.00165866
0.00149203
0.00113177
0.000559104
0.000655484
0.000743172
0.00077488
0.000762734
0.000713755
0.000659565
0.000611078
0.000569075
0.000532594
0.00050074
0.000472862
0.000448143
0.00042563
0.000404276
0.000382833
0.000370089
0.000340107
0.00167643
0.00377472
0.00348174
0.00398937
0.00449548
0.00501609
0.00548318
0.00584451
0.0062158
0.00656348
0.00684252
0.00701213
0.00702797
0.00678334
0.00551303
0.00149401
0.00123944
0.00101118
0.000554583
0.00131631
0.00191864
0.00238489
0.00253223
0.00184542
0.00155789
0.00136222
0.00121785
0.00110722
0.00101947
0.0009438
0.000872656
0.000801643
0.000738211
0.000684997
0.000837918
0.000447118
0.00203692
0.0050726
0.00418649
0.00510443
0.0054901
0.00576089
0.00596911
0.00616133
0.00642921
0.00675507
0.00711119
0.00746008
0.00773531
0.00783158
0.00737924
0.00601402
0.00455785
0.00119427
0.000854332
0.00147432
0.00214542
0.00281293
0.00300348
0.000959295
0.000839852
0.000740462
0.000659962
0.000595001
0.000542357
0.000499564
0.000464959
0.000438042
0.000485439
0.00056218
0.000983093
0.000528393
0.0023838
0.00647841
0.00407213
0.00528786
0.00549879
0.00547761
0.00545807
0.00555032
0.0057683
0.00609093
0.00650091
0.00695772
0.00735744
0.00760848
0.00755139
0.00716069
0.00614563
0.00337385
0.0013758
0.00175208
0.00240866
0.00321256
0.0039091
0.00394322
0.00108041
0.000990306
0.000928934
0.000883637
0.000845335
0.000807295
0.000771159
0.000732979
0.000688357
0.000648447
0.000639018
0.00117166
0.000608553
0.00273781
0.00836908
0.00427094
0.00501919
0.00532071
0.00514044
0.00499375
0.00507741
0.0053077
0.00564378
0.00608608
0.00658716
0.00697895
0.00717351
0.00716821
0.00703117
0.00662594
0.00547897
0.00496579
0.00500166
0.00529295
0.0056399
0.00585246
0.00575604
0.00491087
0.00447615
0.00423641
0.00406471
0.00389097
0.00366722
0.00328719
0.00279773
0.00224095
0.00170473
0.00127866
0.00119126
0.0010342
0.000813332
0.000860759
0.000935587
0.00311664
0.0104979
0.00584859
0.00464668
0.00506414
0.00505344
0.00486623
0.00493544
0.00517071
0.00550736
0.00595624
0.00643696
0.00679946
0.00691465
0.00680415
0.00664679
0.0065761
0.00648171
0.0066767
0.00701478
0.00725169
0.0072934
0.00713314
0.00679848
0.00633154
0.0059521
0.00565655
0.00539622
0.00514077
0.00486972
0.00451947
0.00403949
0.00343227
0.00274548
0.00210979
0.00152981
0.00125746
0.00109686
0.00138114
0.000970513
0.00348942
0.0121021
0.00872415
0.00570987
0.00496871
0.0050399
0.0051036
0.00514049
0.00527429
0.00557159
0.00601369
0.00649027
0.00682262
0.00685875
0.00664919
0.00649798
0.00674748
0.00730062
0.00786346
0.00818076
0.00818128
0.00790841
0.00744659
0.00688447
0.00632513
0.00587492
0.00553407
0.00525774
0.00501611
0.00479913
0.00460169
0.00434373
0.0039192
0.0033523
0.00276331
0.00219734
0.001828
0.00167462
0.00159618
0.00115309
0.00357897
0.0112156
0.009527
0.00799786
0.00682795
0.00630973
0.00582326
0.00549374
0.00548999
0.00577421
0.00623162
0.00670227
0.00698151
0.0069163
0.00665959
0.0067234
0.00743624
0.00802115
0.00832538
0.00831091
0.00798008
0.0074083
0.00670453
0.00599541
0.00540642
0.00499371
0.0047154
0.00451552
0.00436762
0.00426796
0.00422375
0.00422569
0.00411257
0.00377572
0.00344718
0.00326414
0.003344
0.00353004
0.00419306
0.00178523
0.00350477
0.00423041
0.0046753
0.00492486
0.00496213
0.00488889
0.00489234
0.00510045
0.00552027
0.00605396
0.0065993
0.00702811
0.0071647
0.00691716
0.00684662
0.00720813
0.00762622
0.00776937
0.00766525
0.00730202
0.0066937
0.00594231
0.00519269
0.00457761
0.0041523
0.00388144
0.00369973
0.00356168
0.00344396
0.00333341
0.00321992
0.00309529
0.00298231
0.00288457
0.00281978
0.00278318
0.00271362
0.00257062
0.00239699
0.00166668
0.00157978
0.00276067
0.00377671
0.00457227
0.00530094
0.00600993
0.00657135
0.00694683
0.00719071
0.00722391
0.00698576
0.0066969
0.0066976
0.00681711
0.00672527
0.00645433
0.0060272
0.00545219
0.00479058
0.00414455
0.00363039
0.00328418
0.00307195
0.00294169
0.00285518
0.00279217
0.00274382
0.0027081
0.00268803
0.00269431
0.00271003
0.00272404
0.00272476
0.00268159
0.00254861
0.00231434
0.00202417
0.00134113
0.00238087
0.00465353
0.00595106
0.00679153
0.00744517
0.00749549
0.00710343
0.00670955
0.00637231
0.00573419
0.00528035
0.0051745
0.00510273
0.00490285
0.00460178
0.00422865
0.00379114
0.00333097
0.00291618
0.00259344
0.00237107
0.0022429
0.00218288
0.00216996
0.00219126
0.0022385
0.0023045
0.00238085
0.00247022
0.0025729
0.00268271
0.00279056
0.00287827
0.00292214
0.00288124
0.00284553
0.00261986
0.00135859
0.00249159
0.00255349
0.00260944
0.00289324
0.00272908
0.00241437
0.00203362
0.00172835
0.00154177
0.00136495
0.00120949
0.00108787
0.000984941
0.00090693
0.000852713
0.0008131
0.000781243
0.000753832
0.000731201
0.000715932
0.000710238
0.000714527
0.000727213
0.000745862
0.000769426
0.000797352
0.000829471
0.000865987
0.000907503
0.000955317
0.00100971
0.00107028
0.00113735
0.00121123
0.00129194
0.00138866
0.00143096
0.00140163
0.00130369
0.00120559
)
;

boundaryField
{
    floor
    {
        type            compressible::alphatWallFunction;
        Prt             0.85;
        value           nonuniform List<scalar> 
36
(
0.000160683
7.82008e-05
9.26083e-05
0.000105493
0.000110106
0.000108342
0.000101193
9.32133e-05
8.60056e-05
7.97051e-05
7.41861e-05
6.93285e-05
6.50456e-05
6.12213e-05
5.77149e-05
5.4367e-05
5.09824e-05
4.89594e-05
4.41639e-05
4.41633e-05
6.10628e-05
7.35486e-05
8.56301e-05
0.00011568
0.000122504
0.000133176
0.000160681
0.000210146
0.000175549
0.000143834
7.81999e-05
0.000143833
7.75171e-05
0.000169329
0.000121567
0.000194172
)
;
    }
    ceiling
    {
        type            compressible::alphatWallFunction;
        Prt             0.85;
        value           nonuniform List<scalar> 
43
(
0.000340272
0.000348136
0.000355228
0.000391035
0.000370452
0.00033057
0.000281552
0.00024153
0.000216689
0.000192834
0.000171568
0.000154713
0.000140277
0.000129219
0.000121468
0.000115767
0.000111159
0.000107176
0.000103874
0.00010164
0.000100805
0.000101434
0.000103292
0.000106015
0.000109445
0.000113493
0.000118128
0.000123372
0.000129303
0.000136093
0.00014377
0.000152263
0.000161602
0.000171815
0.000182894
0.000196067
0.000201796
0.000197826
0.000184502
0.000171043
0.000467119
0.000555337
0.000326056
)
;
    }
    sWall
    {
        type            compressible::alphatWallFunction;
        Prt             0.85;
        value           uniform 0.00033903;
    }
    nWall
    {
        type            compressible::alphatWallFunction;
        Prt             0.85;
        value           nonuniform List<scalar> 6(0.000132957 0.000137898 0.000163425 0.000189266 0.00019164 0.000170702);
    }
    sideWalls
    {
        type            empty;
    }
    glass1
    {
        type            compressible::alphatWallFunction;
        Prt             0.85;
        value           nonuniform List<scalar> 9(0.000171655 0.000229164 0.000275988 0.000320291 0.000364869 0.000411952 0.000457747 0.00046881 0.000459996);
    }
    glass2
    {
        type            compressible::alphatWallFunction;
        Prt             0.85;
        value           nonuniform List<scalar> 2(0.000247083 0.000231539);
    }
    sun
    {
        type            compressible::alphatWallFunction;
        Prt             0.85;
        value           nonuniform List<scalar> 
14
(
0.000176205
0.000191374
0.000195541
0.000204514
0.000212738
0.000220491
0.000228217
0.000236028
0.000242394
0.000246387
0.000246842
0.0002426
0.000232163
0.000209879
)
;
    }
    Table_master
    {
        type            compressible::alphatWallFunction;
        Prt             0.85;
        value           nonuniform List<scalar> 9(0.00013667 0.000119635 0.00010524 9.34107e-05 8.37361e-05 7.58002e-05 6.92785e-05 6.39532e-05 5.97762e-05);
    }
    Table_slave
    {
        type            compressible::alphatWallFunction;
        Prt             0.85;
        value           nonuniform List<scalar> 9(0.000153694 0.000141054 0.000132368 0.000125914 0.000120426 0.000114946 0.000109712 0.00010415 9.76046e-05);
    }
    inlet
    {
        type            fixedValue;
        value           uniform 1.94e-05;
    }
    outlet
    {
        type            zeroGradient;
    }
}


// ************************************************************************* //
