/*--------------------------------*- C++ -*----------------------------------*\
  =========                 |
  \\      /  F ield         | OpenFOAM: The Open Source CFD Toolbox
   \\    /   O peration     | Website:  https://openfoam.org
    \\  /    A nd           | Version:  6
     \\/     M anipulation  |
\*---------------------------------------------------------------------------*/
FoamFile
{
    version     2.0;
    format      ascii;
    class       volScalarField;
    location    "16400";
    object      k;
}
// * * * * * * * * * * * * * * * * * * * * * * * * * * * * * * * * * * * * * //

dimensions      [0 2 -2 0 0 0 0];

internalField   nonuniform List<scalar> 
778
(
0.001586
0.00180129
0.00178821
0.0019468
0.00209803
0.00224025
0.00237682
0.00251227
0.00265241
0.00280549
0.00295542
0.00310143
0.00324872
0.00341096
0.00358453
0.00079247
0.00162549
0.00165156
0.00157235
0.00144441
0.00128211
0.00113012
0.000998653
0.000887086
0.000792634
0.000712916
0.000644901
0.000585905
0.000533396
0.000484664
0.00043621
0.000397927
0.000326076
0.00340712
0.00643397
0.00268776
0.00274632
0.00288802
0.00305457
0.00323484
0.00343043
0.00364338
0.00387333
0.00412498
0.00437831
0.00459376
0.00469892
0.00459337
0.00429693
0.00390587
0.00357907
0.00253844
0.00281375
0.0029555
0.00289712
0.00266365
0.00226421
0.00190484
0.00160869
0.00136913
0.00117549
0.00101684
0.000885137
0.000773927
0.000681139
0.000615154
0.000574672
0.000864697
0.000524221
0.00549106
0.0127826
0.00347832
0.00321229
0.00329761
0.00345542
0.00363671
0.0038407
0.00407071
0.00432691
0.00463456
0.00500951
0.00544942
0.005959
0.0065306
0.00686003
0.00627781
0.00538591
0.00403763
0.00416985
0.0041734
0.0039757
0.00357773
0.00266578
0.00201534
0.00157553
0.00126916
0.00104907
0.000886762
0.00076451
0.000671767
0.000603615
0.000551432
0.000548701
0.00116639
0.00067866
0.00797404
0.0217616
0.00449186
0.00339087
0.0033416
0.00343811
0.00354938
0.00366869
0.00380866
0.00399062
0.00425809
0.00464711
0.00516967
0.00582385
0.00655402
0.00713486
0.00722887
0.00724651
0.00534112
0.00554639
0.00537426
0.00512479
0.00478662
0.0043481
0.00345608
0.00285927
0.00243603
0.00210968
0.00185012
0.0016316
0.00143822
0.00125827
0.00107742
0.000800572
0.00065971
0.0014236
0.000822996
0.0108771
0.03364
0.00621421
0.00342514
0.00315832
0.00316693
0.00318945
0.00320961
0.0032517
0.00336043
0.00359378
0.00398794
0.00455201
0.00527543
0.00608596
0.00681704
0.00728202
0.00764146
0.00751236
0.00665044
0.00607069
0.00557755
0.00509843
0.00462928
0.00412331
0.00366573
0.00327486
0.00293701
0.00263059
0.00234701
0.00207845
0.00181781
0.0015545
0.00122171
0.000930068
0.00119146
0.00121707
0.00117109
0.0020623
0.00189114
0.0141759
0.0476059
0.00928671
0.00349028
0.00290858
0.00282267
0.00276424
0.00269928
0.00266385
0.00273409
0.00298021
0.00341351
0.00402272
0.00479722
0.00565309
0.00646067
0.00706682
0.00740387
0.0073192
0.00678605
0.00621232
0.00563557
0.00507359
0.00455583
0.00409141
0.00369576
0.00336303
0.0030735
0.00280635
0.00255087
0.00229824
0.00204161
0.00177356
0.00147126
0.00117787
0.00111261
0.0011122
0.00172051
0.00513331
0.00270102
0.0179936
0.0606128
0.014365
0.00382013
0.00271529
0.00252934
0.00241163
0.00229374
0.00222068
0.00231127
0.00263012
0.0031393
0.00380231
0.0046325
0.00552968
0.00636742
0.00700031
0.00732596
0.00725138
0.00681526
0.00621347
0.00555383
0.00491154
0.00434273
0.00387258
0.00350055
0.00320677
0.0029618
0.00274115
0.0025286
0.0023128
0.0020866
0.00184502
0.00158282
0.00132629
0.00115907
0.00109305
0.0015708
0.00637267
0.00376234
0.0216429
0.0704861
0.0214431
0.00510376
0.002743
0.00237178
0.00220995
0.00208159
0.00202587
0.00221912
0.00264973
0.00323155
0.00393895
0.00477774
0.00570329
0.00657745
0.00722587
0.00751407
0.00738318
0.00689514
0.00619788
0.00542733
0.00469218
0.00406506
0.00357488
0.00321286
0.00294798
0.00274135
0.00256434
0.00239555
0.00222142
0.00203461
0.00183157
0.00161241
0.00139485
0.00122697
0.00115863
0.00216804
0.0140202
0.00649621
0.0228339
0.0694875
0.032542
0.0110628
0.00406876
0.00258747
0.00223523
0.00210254
0.00218939
0.00251173
0.00300014
0.00360296
0.00433577
0.00521884
0.00619331
0.00709538
0.00772243
0.00792533
0.00766523
0.00702631
0.00616712
0.00525114
0.0044101
0.00372441
0.00321805
0.00287
0.00263657
0.00247011
0.00233699
0.00221146
0.00207879
0.00193203
0.00176874
0.00159065
0.00141077
0.00127962
0.00136761
0.00435525
0.0279869
0.00853657
0.0219174
0.0516242
0.0336451
0.0174387
0.00858999
0.00475938
0.00326049
0.00272908
0.002852
0.0032096
0.00367166
0.00424769
0.00500054
0.00594823
0.00698691
0.00789935
0.00844947
0.00848739
0.00800529
0.00712644
0.00604603
0.00495994
0.00401699
0.00329493
0.00280093
0.0024911
0.00230449
0.00218653
0.00209817
0.00201271
0.00191677
0.00180474
0.00167533
0.00153093
0.00138332
0.00129369
0.00180455
0.0113163
0.0231582
0.00872084
0.0192305
0.0394272
0.0302361
0.0195681
0.0121838
0.0079389
0.00571635
0.00466772
0.00436009
0.00439737
0.00465105
0.00514708
0.00594273
0.00699501
0.00810563
0.00897887
0.00935165
0.00909957
0.00827513
0.00706523
0.00572005
0.00446999
0.00347054
0.0027752
0.00235313
0.00211917
0.00199496
0.00192733
0.00187729
0.00182322
0.00175525
0.0016695
0.00156583
0.00144805
0.00133093
0.00129985
0.00225218
0.0110443
0.0215234
0.00867415
0.0159455
0.0315816
0.0266493
0.0195395
0.0139765
0.010284
0.00802645
0.00675003
0.00604664
0.00572825
0.00578161
0.00627807
0.0072212
0.00843659
0.00958684
0.0102973
0.010316
0.00959335
0.00828712
0.00667204
0.00506826
0.00373385
0.00280166
0.00224118
0.00196069
0.00182082
0.00175204
0.00171821
0.00169062
0.0016552
0.00160519
0.00153742
0.00145368
0.00136089
0.00127908
0.00131249
0.00231545
0.00947906
0.0207206
0.00925799
0.0132642
0.0256782
0.0233553
0.0186925
0.0145852
0.0115889
0.00954363
0.0082088
0.00729838
0.00683854
0.00695937
0.00772806
0.00899623
0.0103875
0.0114242
0.011712
0.0111008
0.00968581
0.00778621
0.00576996
0.00404211
0.00284466
0.00219952
0.00186662
0.00170415
0.00162454
0.0015846
0.00156275
0.00154089
0.00151037
0.00146715
0.00141078
0.00134516
0.00128159
0.00126126
0.00148704
0.00281646
0.00933722
0.0180871
0.0102134
0.0133561
0.022427
0.0220668
0.0177652
0.0143958
0.0118963
0.0100853
0.00876904
0.00791744
0.00777448
0.00847865
0.00988391
0.0115493
0.012893
0.0134088
0.0128292
0.01125
0.00896176
0.00651732
0.00430958
0.00296033
0.00221799
0.00184868
0.00166621
0.00157319
0.0015215
0.00148823
0.00146185
0.00143271
0.00139578
0.00134948
0.00129721
0.00125333
0.00126685
0.00149645
0.00227688
0.00423873
0.00998325
0.0181408
0.0100258
0.0108795
0.0117684
0.0129257
0.0125537
0.011375
0.0100748
0.00894641
0.00820213
0.00830083
0.00941733
0.0113032
0.0133829
0.0149748
0.0155354
0.0148124
0.0128289
0.0100942
0.00698964
0.00461209
0.0031084
0.00231831
0.00193199
0.00174066
0.00163561
0.00156922
0.00151987
0.00147688
0.00143463
0.00139036
0.00134301
0.00129383
0.00125476
0.00126602
0.00144434
0.00205343
0.00348056
0.0061968
0.0108033
0.0164567
0.00884766
0.00354094
0.0048186
0.00598787
0.00659238
0.00727069
0.00878473
0.0113029
0.0141418
0.0165707
0.0180099
0.0180855
0.0167211
0.0141508
0.0105306
0.00723204
0.00475635
0.00326208
0.00249975
0.00214568
0.00197145
0.00186932
0.0017962
0.00173589
0.00168184
0.00163127
0.00158321
0.00153749
0.0015024
0.00147923
0.00148157
0.0015571
0.00183079
0.00256361
0.00415926
0.00704624
0.0113374
0.0156483
0.00806595
0.00444656
0.00627906
0.00809112
0.0109982
0.0146698
0.0181308
0.0203777
0.0214534
0.0213867
0.0201562
0.0175848
0.0140554
0.010349
0.00704134
0.0047229
0.00340541
0.0027873
0.00252262
0.00240124
0.00233179
0.00228195
0.00224213
0.0022116
0.00219294
0.00218868
0.00219825
0.00221583
0.00222943
0.00224664
0.00228978
0.00239202
0.00265601
0.00328312
0.00462574
0.00718215
0.0114882
0.0178956
0.00888861
0.0150791
0.0245569
0.0181328
0.0143777
0.0169688
0.0206534
0.0227751
0.023478
0.0230358
0.0216949
0.0196793
0.0169984
0.0137598
0.0103475
0.00733915
0.00521489
0.00406256
0.00356806
0.00338808
0.00332423
0.00329256
0.00326202
0.00322535
0.00318741
0.0031588
0.00315096
0.003173
0.00323038
0.00332476
0.00345267
0.00360153
0.00376434
0.00400426
0.00441149
0.00510951
0.00637311
0.00879114
0.0144062
0.0180173
0.0103451
0.0138076
0.017064
0.0178199
0.0207284
0.0216541
0.0220697
0.0210754
0.0192691
0.0171594
0.0149916
0.0128574
0.0107839
0.00879399
0.00701411
0.00562539
0.00476431
0.00434276
0.00418744
0.00416848
0.00421061
0.0042707
0.0043253
0.00436596
0.00439624
0.00442791
0.00447696
0.00456117
0.00470008
0.00491638
0.00523597
0.00568349
0.00627049
0.00696941
0.00777884
0.00879801
0.0102847
0.0126437
0.0173385
0.0199698
0.0111553
0.0121333
0.0089151
0.00883035
0.00936
0.00981444
0.00926128
0.00821176
0.00705747
0.00597523
0.00501045
0.00416233
0.00343649
0.00286397
0.0024806
0.00228368
0.00221128
0.00221231
0.00224988
0.00230333
0.00236193
0.00242056
0.00247791
0.00253589
0.00259925
0.00267536
0.00277435
0.00290948
0.00309708
0.00335444
0.00369479
0.00412146
0.00462701
0.00520116
0.00584742
0.00657637
0.00737389
0.00824679
0.00923454
0.0103133
0.00942549
)
;

boundaryField
{
    floor
    {
        type            kqRWallFunction;
        value           nonuniform List<scalar> 
36
(
0.00358453
0.00079247
0.00162549
0.00165156
0.00157235
0.00144441
0.00128211
0.00113012
0.000998653
0.000887086
0.000792634
0.000712916
0.000644901
0.000585905
0.000533396
0.000484664
0.00043621
0.000397927
0.000326076
0.000326076
0.000524221
0.00067866
0.000822996
0.00117109
0.0020623
0.00189114
0.00358453
0.00429693
0.00390587
0.00357907
0.00079247
0.00357907
0.00253844
0.00538591
0.00403763
0.00534112
)
;
    }
    ceiling
    {
        type            kqRWallFunction;
        value           nonuniform List<scalar> 
43
(
0.0121333
0.0089151
0.00883035
0.00936
0.00981444
0.00926128
0.00821176
0.00705747
0.00597523
0.00501045
0.00416233
0.00343649
0.00286397
0.0024806
0.00228368
0.00221128
0.00221231
0.00224988
0.00230333
0.00236193
0.00242056
0.00247791
0.00253589
0.00259925
0.00267536
0.00277435
0.00290948
0.00309708
0.00335444
0.00369479
0.00412146
0.00462701
0.00520116
0.00584742
0.00657637
0.00737389
0.00824679
0.00923454
0.0103133
0.00942549
0.0108795
0.0117684
0.00444656
)
;
    }
    sWall
    {
        type            kqRWallFunction;
        value           nonuniform List<scalar> 9(0.0219174 0.0192305 0.0159455 0.0132642 0.0133561 0.0108795 0.0150791 0.0138076 0.0121333);
    }
    nWall
    {
        type            kqRWallFunction;
        value           nonuniform List<scalar> 
14
(
0.00189114
0.00270102
0.00376234
0.00872084
0.00867415
0.00925799
0.0102134
0.0100258
0.00884766
0.00806595
0.00888861
0.0103451
0.0111553
0.00942549
)
;
    }
    sideWalls
    {
        type            empty;
    }
    glass1
    {
        type            kqRWallFunction;
        value           nonuniform List<scalar> 9(0.001586 0.00340712 0.00549106 0.00797404 0.0108771 0.0141759 0.0179936 0.0216429 0.0228339);
    }
    glass2
    {
        type            kqRWallFunction;
        value           nonuniform List<scalar> 2(0.00649621 0.00853657);
    }
    sun
    {
        type            kqRWallFunction;
        value           nonuniform List<scalar> 
14
(
0.001586
0.00180129
0.00178821
0.0019468
0.00209803
0.00224025
0.00237682
0.00251227
0.00265241
0.00280549
0.00295542
0.00310143
0.00324872
0.00341096
)
;
    }
    Table_master
    {
        type            kqRWallFunction;
        value           nonuniform List<scalar> 9(0.00266578 0.00201534 0.00157553 0.00126916 0.00104907 0.000886762 0.00076451 0.000671767 0.000603615);
    }
    Table_slave
    {
        type            kqRWallFunction;
        value           nonuniform List<scalar> 9(0.00345608 0.00285927 0.00243603 0.00210968 0.00185012 0.0016316 0.00143822 0.00125827 0.00107742);
    }
    inlet
    {
        type            turbulentIntensityKineticEnergyInlet;
        intensity       0.05;
        value           uniform 0.0009375;
    }
    outlet
    {
        type            zeroGradient;
    }
}


// ************************************************************************* //
