/*--------------------------------*- C++ -*----------------------------------*\
  =========                 |
  \\      /  F ield         | OpenFOAM: The Open Source CFD Toolbox
   \\    /   O peration     | Website:  https://openfoam.org
    \\  /    A nd           | Version:  6
     \\/     M anipulation  |
\*---------------------------------------------------------------------------*/
FoamFile
{
    version     2.0;
    format      ascii;
    class       volScalarField;
    location    "16400";
    object      nut;
}
// * * * * * * * * * * * * * * * * * * * * * * * * * * * * * * * * * * * * * //

dimensions      [0 2 -1 0 0 0 0];

internalField   nonuniform List<scalar> 
778
(
0.000894327
0.000953096
0.000949628
0.000990842
0.00102861
0.0010629
0.00109482
0.00112558
0.00115655
0.00118946
0.00122083
0.00125062
0.00127997
0.00131154
0.0013445
0.000632172
0.000905396
0.000912627
0.000890474
0.000853478
0.000804098
0.000754932
0.000709664
0.000668849
0.00063224
0.000599604
0.000570285
0.000543575
0.000518645
0.000494386
0.000469022
0.000447968
0.000405513
0.00131081
0.00258127
0.00226513
0.00261451
0.0028681
0.00313693
0.00340505
0.00365208
0.00385084
0.00396645
0.00403435
0.00400615
0.0038062
0.00331117
0.0024182
0.00147206
0.00140347
0.00134348
0.00113143
0.00192694
0.00267057
0.00310952
0.00312981
0.00247002
0.00211249
0.00186454
0.00167638
0.00152682
0.00139934
0.00128661
0.00118167
0.001079
0.000986857
0.00090741
0.00102229
0.000514165
0.00166407
0.00360464
0.00267232
0.00382239
0.00427127
0.00465114
0.00499609
0.00529957
0.00555653
0.00575784
0.00595284
0.00615795
0.00634636
0.00645846
0.00638398
0.0058457
0.00427585
0.00164807
0.00142694
0.00305242
0.00426016
0.00483157
0.00439445
0.00115947
0.00100814
0.000891377
0.000800028
0.000727359
0.000668728
0.000620923
0.000582043
0.000551729
0.000606544
0.000713552
0.00113034
0.000585022
0.00200532
0.00485883
0.00255737
0.00429813
0.00496272
0.00531848
0.00558007
0.00577353
0.00591778
0.0060345
0.00620046
0.00648086
0.00689008
0.00740487
0.00792275
0.00817852
0.00768153
0.00573532
0.0016412
0.00379645
0.00565142
0.00659556
0.00682932
0.0058311
0.00132019
0.00120081
0.00110838
0.00103147
0.000965931
0.000907096
0.000851646
0.000796587
0.000737121
0.000688608
0.000713863
0.00122411
0.000644239
0.00234208
0.00643376
0.0025805
0.00408616
0.00510796
0.00541148
0.00552188
0.0055264
0.00547163
0.00542292
0.00549222
0.00576452
0.00626437
0.00697245
0.00779398
0.00855128
0.00903155
0.00902562
0.00809955
0.00824055
0.0084306
0.00845852
0.00828753
0.00775781
0.00617433
0.00533351
0.00475748
0.00428985
0.00383079
0.0033859
0.00295061
0.002516
0.00206976
0.00158982
0.00121308
0.00121235
0.000959349
0.000768493
0.0010197
0.000976558
0.00267375
0.00819719
0.0030385
0.00344597
0.00489443
0.00523122
0.00520473
0.0050177
0.00475007
0.00452924
0.00452418
0.00480961
0.00537924
0.00620025
0.0071611
0.0081217
0.00893846
0.00946065
0.00955582
0.00946038
0.00929355
0.00905655
0.00875135
0.00836246
0.0077945
0.00724708
0.00674995
0.00626966
0.00575064
0.00519623
0.00460412
0.00396948
0.00328837
0.0025658
0.00191141
0.00143513
0.00111484
0.0012527
0.00218429
0.00116711
0.00301234
0.0098287
0.00404984
0.00282336
0.00439803
0.00494853
0.00488782
0.00458488
0.00414526
0.00375866
0.00374773
0.00410855
0.0047609
0.0056791
0.00672299
0.00775655
0.00864597
0.00928311
0.00957644
0.00955434
0.00934546
0.0090286
0.00866536
0.00830269
0.00795169
0.00762944
0.00732656
0.00700337
0.00661262
0.00614222
0.00558552
0.00494003
0.00420825
0.00340847
0.00262604
0.00189762
0.00139782
0.00124987
0.00222695
0.00137739
0.00330371
0.0110654
0.00552279
0.00268894
0.00348396
0.0043872
0.00451342
0.00426444
0.00374487
0.00321913
0.00333878
0.00381641
0.00454659
0.00549303
0.00657793
0.00765978
0.00858202
0.00922257
0.00951361
0.00947595
0.00920585
0.00880705
0.0083777
0.00799667
0.00770285
0.00749289
0.00732901
0.0071508
0.00690234
0.00655461
0.00609428
0.00551879
0.00483355
0.00405827
0.00325072
0.00243515
0.00169868
0.00115011
0.00320099
0.00180958
0.0033934
0.0104825
0.00683842
0.00347856
0.00236192
0.00289428
0.00338831
0.00343044
0.00302939
0.00294462
0.00325074
0.00381275
0.00460311
0.00560785
0.00674563
0.00786076
0.00877897
0.00936897
0.00957574
0.00943281
0.00904079
0.00852636
0.00801553
0.00760769
0.0073488
0.00722184
0.0071643
0.0070958
0.00695263
0.00670111
0.00632811
0.00583237
0.00521996
0.00450643
0.00372153
0.00283842
0.00162597
0.00149079
0.00494204
0.00207462
0.00332459
0.00845613
0.00706658
0.00477729
0.00315369
0.00244079
0.00231148
0.00242066
0.00262438
0.00294859
0.00340863
0.00404166
0.00490236
0.005987
0.00718751
0.00831809
0.00918698
0.00966368
0.00971166
0.00938891
0.00882217
0.00816974
0.00758669
0.00718683
0.00700371
0.00698279
0.0070229
0.00702234
0.00692932
0.00672532
0.00640434
0.00596605
0.00541343
0.00475069
0.00395992
0.00279378
0.00119725
0.00295306
0.00456721
0.00209682
0.00311415
0.00722954
0.00683491
0.00546898
0.00420736
0.00338601
0.00297976
0.00288775
0.00305578
0.0033653
0.00381522
0.00448408
0.00543589
0.0066264
0.00788842
0.00899388
0.00974
0.0100138
0.00981404
0.00923964
0.00846126
0.00768125
0.0070871
0.00678864
0.00675504
0.00685436
0.00695374
0.00695576
0.00685729
0.00665971
0.00635963
0.00595212
0.00543056
0.00477713
0.00391914
0.00256453
0.00126054
0.00319214
0.00472535
0.00209065
0.00283572
0.00652056
0.00659554
0.00579134
0.00492505
0.00427322
0.00388946
0.00375204
0.00378615
0.00397265
0.00438568
0.00513372
0.00623558
0.0075551
0.00884317
0.00983459
0.0103385
0.0102873
0.00973959
0.00885503
0.00786983
0.00704459
0.00657542
0.00648292
0.0065692
0.00670176
0.0067869
0.00676207
0.00664705
0.00644736
0.00615677
0.00575712
0.00522096
0.00449176
0.00347689
0.00220104
0.00149405
0.00322114
0.00511081
0.00215788
0.00258633
0.00583628
0.00630123
0.00591955
0.00536267
0.00489529
0.00458451
0.00443236
0.00438637
0.00454473
0.00506923
0.00604792
0.00738241
0.00881046
0.0100116
0.0107224
0.0108103
0.0102905
0.00931165
0.00811499
0.00702986
0.00633195
0.00602863
0.00600263
0.00610316
0.00622425
0.00629331
0.0062663
0.00614671
0.00594297
0.00564325
0.00521077
0.00456784
0.00362422
0.00248372
0.00171757
0.00183282
0.00357134
0.00508264
0.00226787
0.00259529
0.00579369
0.00643972
0.00599271
0.00554152
0.00517224
0.00490581
0.00473217
0.00472243
0.00510775
0.00603438
0.00742252
0.00898781
0.010364
0.0112304
0.0114037
0.0108727
0.00976722
0.00836562
0.00700461
0.00601586
0.00544142
0.00518916
0.0051511
0.00522388
0.00531709
0.0053657
0.00533481
0.00519953
0.00497434
0.00463459
0.0041064
0.00328744
0.00229215
0.00165824
0.00169655
0.00234889
0.00401158
0.0053656
0.0022501
0.00234234
0.00243614
0.00359191
0.00421849
0.00441128
0.00441295
0.00436868
0.0044468
0.00498231
0.00613236
0.00775749
0.00951471
0.0110146
0.0119318
0.0120791
0.0114301
0.010149
0.00848406
0.00689505
0.0056528
0.00483103
0.00437824
0.00419097
0.00415093
0.00416614
0.00417303
0.00413425
0.00403593
0.00385915
0.00361058
0.00328233
0.0028256
0.00222931
0.00172092
0.00164464
0.00206727
0.00288493
0.00398705
0.00474631
0.00211428
0.000806663
0.00146258
0.00225604
0.00289509
0.00363515
0.00488887
0.00673758
0.00879848
0.0106827
0.012093
0.0128223
0.0127362
0.0118452
0.0102562
0.00837573
0.00660455
0.00521092
0.00429548
0.00381137
0.00359301
0.00349567
0.00343486
0.00336473
0.00326219
0.00312349
0.00296087
0.00279296
0.00261913
0.00244317
0.00224965
0.00203155
0.00186965
0.00195797
0.00242858
0.00321285
0.00404509
0.00440639
0.00201782
0.00149747
0.0020731
0.0030243
0.00472649
0.00704262
0.00937257
0.011188
0.01251
0.013319
0.0135485
0.0130879
0.0118319
0.00998393
0.00791072
0.00602795
0.00464453
0.0038588
0.00350612
0.00336622
0.00330582
0.00326296
0.00320941
0.00313477
0.00304164
0.0029414
0.00284704
0.00276566
0.00269412
0.00262866
0.00256746
0.00251443
0.00249859
0.00260465
0.00296834
0.00367235
0.00463576
0.00546395
0.00211382
0.00275762
0.00668163
0.00613743
0.00547247
0.00695436
0.00928716
0.0112655
0.0126133
0.013339
0.0135353
0.0132775
0.0125102
0.0111854
0.00934976
0.00728604
0.00546831
0.00428704
0.00372927
0.00352982
0.00347843
0.00347286
0.00346825
0.00344606
0.00340239
0.00334259
0.00327644
0.00321391
0.00316304
0.00313025
0.00312099
0.00313778
0.00318085
0.00325362
0.00337458
0.00359589
0.00399398
0.00469392
0.00601709
0.00619956
0.00228427
0.00263878
0.0050955
0.00656131
0.00838523
0.00931397
0.0102807
0.0108508
0.0109986
0.0108013
0.0103108
0.0095384
0.00847415
0.00714701
0.00572606
0.00450673
0.00373113
0.00336028
0.00323327
0.00322533
0.00326632
0.00331687
0.0033547
0.00336979
0.00336165
0.00333553
0.00329855
0.00325821
0.00322404
0.00321073
0.00323884
0.00333124
0.00350557
0.00376015
0.00407219
0.00441972
0.00488887
0.00557441
0.00671283
0.00665138
0.00237257
0.00247361
0.00212035
0.00211024
0.0021726
0.00222472
0.0021611
0.00203495
0.00188647
0.00173574
0.00158935
0.00144851
0.0013161
0.00120148
0.00111827
0.00107305
0.00105598
0.00105627
0.0010652
0.00107774
0.00109131
0.00110471
0.00111768
0.00113066
0.00114473
0.00116146
0.00118292
0.00121165
0.00125045
0.00130173
0.00136645
0.00144325
0.00152903
0.00162077
0.00171813
0.00182153
0.00192827
0.00203879
0.00215714
0.00227967
0.00218028
)
;

boundaryField
{
    floor
    {
        type            nutkWallFunction;
        Cmu             0.09;
        kappa           0.41;
        E               9.8;
        value           nonuniform List<scalar> 
36
(
0.000160534
7.63578e-05
0.000109524
0.000110384
0.000107747
0.000103325
9.73886e-05
9.14349e-05
8.59121e-05
8.08966e-05
7.63665e-05
7.23013e-05
6.86262e-05
6.52579e-05
6.20957e-05
5.90005e-05
5.57439e-05
5.30241e-05
4.74889e-05
4.74889e-05
6.15251e-05
7.04758e-05
7.78539e-05
9.30815e-05
0.000123045
0.000117959
0.000160534
0.00017497
0.000167226
0.000160417
7.63577e-05
0.000160417
0.000136066
0.000194667
0.00016988
0.000193903
)
;
    }
    ceiling
    {
        type            nutkWallFunction;
        Cmu             0.09;
        kappa           0.41;
        E               9.8;
        value           nonuniform List<scalar> 
43
(
0.000284311
0.000246398
0.000245307
0.000252054
0.000257681
0.000250839
0.000237186
0.000220993
0.00020441
0.000188153
0.000172355
0.000157342
0.000144202
0.000134564
0.000129289
0.000127286
0.000127315
0.000128358
0.000129826
0.000131414
0.000132981
0.000134493
0.000136003
0.00013763
0.000139557
0.000142017
0.000145298
0.000149715
0.00015554
0.000162873
0.000171555
0.000181218
0.000191505
0.000202357
0.000213827
0.000225595
0.000237694
0.000250559
0.000263768
0.000252959
0.000270493
0.000280517
0.000177622
)
;
    }
    sWall
    {
        type            nutkWallFunction;
        Cmu             0.09;
        kappa           0.41;
        E               9.8;
        value           nonuniform List<scalar> 9(0.000373883 0.000352052 0.000322934 0.000296603 0.000297548 0.000270583 0.000314405 0.000301893 0.000284413);
    }
    nWall
    {
        type            nutkWallFunction;
        Cmu             0.09;
        kappa           0.41;
        E               9.8;
        value           nonuniform List<scalar> 
14
(
0.000117966
0.000140212
0.000164298
0.000244003
0.000243394
0.00025089
0.000262612
0.00026036
0.000245653
0.000235287
0.000246183
0.000264183
0.000273593
0.000252997
)
;
    }
    sideWalls
    {
        type            empty;
    }
    glass1
    {
        type            nutkWallFunction;
        Cmu             0.09;
        kappa           0.41;
        E               9.8;
        value           nonuniform List<scalar> 9(0.00010825 0.000156885 0.000196741 0.000234356 0.000270802 0.000306155 0.000341775 0.000372097 0.000381384);
    }
    glass2
    {
        type            nutkWallFunction;
        Cmu             0.09;
        kappa           0.41;
        E               9.8;
        value           nonuniform List<scalar> 2(0.000212734 0.000241712);
    }
    sun
    {
        type            nutkWallFunction;
        Cmu             0.09;
        kappa           0.41;
        E               9.8;
        value           nonuniform List<scalar> 
14
(
0.000108209
0.000115185
0.000114774
0.000119639
0.000124077
0.000128091
0.000131813
0.000135389
0.000138977
0.000142778
0.000146391
0.000149812
0.000153174
0.00015678
)
;
    }
    Table_master
    {
        type            nutkWallFunction;
        Cmu             0.09;
        kappa           0.41;
        E               9.8;
        value           nonuniform List<scalar> 9(0.000139304 0.000121667 0.000107851 9.68965e-05 8.80771e-05 8.08852e-05 7.49651e-05 7.01099e-05 6.62969e-05);
    }
    Table_slave
    {
        type            nutkWallFunction;
        Cmu             0.09;
        kappa           0.41;
        E               9.8;
        value           nonuniform List<scalar> 9(0.000157754 0.000144076 0.000133381 0.000124404 0.000116695 0.000109723 0.000103104 9.64812e-05 8.92677e-05);
    }
    inlet
    {
        type            calculated;
        value           uniform 0.000167705;
    }
    outlet
    {
        type            calculated;
        value           nonuniform List<scalar> 2(0.00275762 0.00668163);
    }
}


// ************************************************************************* //
