/*--------------------------------*- C++ -*----------------------------------*\
  =========                 |
  \\      /  F ield         | OpenFOAM: The Open Source CFD Toolbox
   \\    /   O peration     | Website:  https://openfoam.org
    \\  /    A nd           | Version:  6
     \\/     M anipulation  |
\*---------------------------------------------------------------------------*/
FoamFile
{
    version     2.0;
    format      ascii;
    class       volScalarField;
    location    "3960";
    object      epsilon;
}
// * * * * * * * * * * * * * * * * * * * * * * * * * * * * * * * * * * * * * //

dimensions      [0 2 -3 0 0 0 0];

internalField   nonuniform List<scalar> 
458
(
0.000432798
0.000557902
0.000596576
0.000686362
0.000776642
0.00086911
0.000968736
0.00107732
0.00117188
0.00123403
0.00124118
0.00117484
0.00102238
0.000744297
0.000324955
3.92328e-05
6.32078e-05
9.21134e-05
0.000104419
9.95928e-05
8.16168e-05
6.4406e-05
5.12233e-05
4.13712e-05
3.39158e-05
2.81885e-05
2.37378e-05
2.02074e-05
1.73133e-05
1.48367e-05
1.25996e-05
1.13836e-05
8.83705e-06
0.00106108
0.00158339
0.00051841
0.000502582
0.000518419
0.000550876
0.000606214
0.000688405
0.000779638
0.000853853
0.000881947
0.000847715
0.000756818
0.00062396
0.000502
0.00074734
0.00042675
0.00023178
3.82919e-05
7.53662e-05
9.27343e-05
9.34131e-05
8.97151e-05
9.00217e-05
7.05475e-05
5.34841e-05
4.07988e-05
3.15306e-05
2.47356e-05
1.9718e-05
1.59636e-05
1.31651e-05
1.14032e-05
1.06881e-05
3.04941e-05
2.00776e-05
0.00190708
0.00384821
0.000603718
0.000458243
0.000465966
0.00050808
0.000580358
0.000683528
0.000796969
0.000884194
0.000917856
0.000887774
0.000801875
0.000667077
0.000517554
0.000416343
0.000352992
0.000381817
0.000139946
0.000139209
0.000125549
0.000111483
0.000103489
0.000198143
0.000132963
9.11219e-05
6.45167e-05
4.72789e-05
3.58071e-05
2.79824e-05
2.25609e-05
1.88651e-05
1.48253e-05
1.31276e-05
6.48877e-05
3.31352e-05
0.00306329
0.00799442
0.000903751
0.000438969
0.000429199
0.000481204
0.000574915
0.000717862
0.000862491
0.000957847
0.00098907
0.000952765
0.000855125
0.000703244
0.000548442
0.000432301
0.000365815
0.000380459
0.000583822
0.000375789
0.000245125
0.000178232
0.000140436
0.000122962
0.000283194
0.000218119
0.000180049
0.000154988
0.000135705
0.000118215
0.000103047
8.84915e-05
7.32965e-05
4.53973e-05
2.92889e-05
0.000114643
5.06216e-05
0.0046497
0.014428
0.00174036
0.000470829
0.000395584
0.00045154
0.000588822
0.000832724
0.00101848
0.00111175
0.00112823
0.00106911
0.000937362
0.00075367
0.00056483
0.000420032
0.00033164
0.000302663
0.000303803
0.000253567
0.000209344
0.000175082
0.000146263
0.000122036
0.000113032
0.000103783
9.75176e-05
9.21757e-05
8.61829e-05
7.87586e-05
7.08776e-05
6.31504e-05
5.58975e-05
4.60254e-05
3.61877e-05
7.47636e-05
0.000114606
0.000120974
0.000143505
0.000184282
0.00687176
0.021736
0.00400156
0.000790647
0.00046503
0.00047399
0.000700593
0.00111966
0.00130601
0.00136566
0.00134333
0.00124588
0.001067
0.000825118
0.000577555
0.000388658
0.000278769
0.000238466
0.000228168
0.000218181
0.000201077
0.000176713
0.000149254
0.000123717
0.000107293
0.000100877
9.97253e-05
9.93248e-05
9.71881e-05
9.16524e-05
8.17013e-05
7.04408e-05
5.97964e-05
5.01402e-05
4.34339e-05
5.55227e-05
8.83481e-05
0.00010613
0.000206707
0.000205618
0.00966078
0.0261943
0.00879533
0.00280023
0.00145401
0.00114079
0.00148271
0.00172635
0.00178579
0.00174892
0.00164954
0.00148319
0.00122969
0.000907943
0.00058812
0.00035581
0.000234421
0.000200148
0.000202309
0.000202956
0.000189978
0.000166799
0.000141296
0.000120168
0.000109037
0.000108523
0.000113638
0.000120129
0.000125704
0.000128154
0.000124073
0.000111067
9.74708e-05
8.59172e-05
8.04292e-05
8.87069e-05
0.000120572
0.000176759
0.000327312
0.000344784
0.0104478
0.0301007
0.0160957
0.00965276
0.00597
0.0041804
0.00338345
0.00287592
0.00253811
0.0022811
0.00203891
0.00176074
0.00139702
0.000968268
0.000561274
0.000300423
0.000190353
0.000174353
0.000179606
0.00017709
0.000162179
0.000141931
0.000124111
0.000113525
0.000112222
0.000119058
0.000131173
0.000146862
0.000165765
0.000187758
0.000212056
0.000232934
0.000245997
0.000273128
0.000329081
0.000480075
0.000820533
0.00137763
0.00411035
0.00128189
0.00984347
0.0172564
0.0132407
0.00999031
0.00750808
0.00579393
0.00458953
0.00379056
0.00325084
0.00282338
0.00242646
0.00200601
0.00148351
0.000913907
0.000406986
0.000216061
0.000158858
0.000147511
0.000144438
0.000136915
0.000124584
0.000112488
0.000104968
0.000104105
0.000109947
0.000121519
0.000138068
0.0001599
0.000188371
0.000225733
0.000275054
0.000339949
0.000427263
0.00055199
0.000734109
0.000976853
0.00125106
0.00149864
0.00170332
0.00104489
0.00347899
0.00472048
0.00512299
0.00502767
0.00473219
0.00431883
0.00378239
0.00315703
0.00254682
0.00194779
0.00116388
0.000536658
0.000254605
0.000159707
0.000129176
0.000118205
0.000110938
0.000103126
9.54807e-05
8.99945e-05
8.84673e-05
9.13272e-05
9.81855e-05
0.000108632
0.000122683
0.000140911
0.000164565
0.000195768
0.000237994
0.000297015
0.000378476
0.000488603
0.000629972
0.000786495
0.000911354
0.000944834
0.000871203
0.000544321
0.00289523
0.0086197
0.00827958
0.00717063
0.006073
0.00478788
0.00347716
0.00225639
0.00128253
0.000709908
0.000375249
0.000215445
0.000151303
0.000124238
0.00011116
0.000102271
9.4284e-05
8.71106e-05
8.17606e-05
7.89743e-05
7.90405e-05
8.20698e-05
8.80194e-05
9.70681e-05
0.000109733
0.000126933
0.000150053
0.000181164
0.000223228
0.000280001
0.00035664
0.000458319
0.000585881
0.000728713
0.000842168
0.00095642
0.000733687
0.000565766
0.00336777
0.00362362
0.00386705
0.00532556
0.00449791
0.00313095
0.00187996
0.00115779
0.000823425
0.000572118
0.000398374
0.000290038
0.000215325
0.00016814
0.000139757
0.000121182
0.000107496
9.65787e-05
8.81426e-05
8.27375e-05
8.07803e-05
8.22504e-05
8.67093e-05
9.35521e-05
0.000102701
0.000114293
0.000128657
0.000146416
0.00016851
0.000196578
0.000232099
0.000276425
0.000331717
0.000400651
0.00048622
0.000603851
0.000660803
0.000621039
0.000499753
0.000395349
)
;

boundaryField
{
    floor
    {
        Cmu             0.09;
        kappa           0.41;
        E               9.8;
        type            epsilonWallFunction;
        value           nonuniform List<scalar> 
36
(
0.000324955
3.92328e-05
6.32078e-05
9.21134e-05
0.000104419
9.95928e-05
8.16168e-05
6.4406e-05
5.12233e-05
4.13712e-05
3.39158e-05
2.81885e-05
2.37378e-05
2.02074e-05
1.73133e-05
1.48367e-05
1.25996e-05
1.13836e-05
8.83705e-06
8.83705e-06
2.00776e-05
3.31352e-05
5.06216e-05
0.000120974
0.000143505
0.000184282
0.000324955
0.00074734
0.00042675
0.00023178
3.92328e-05
0.00023178
3.82919e-05
0.000381817
0.000139946
0.000583822
)
;
    }
    ceiling
    {
        Cmu             0.09;
        kappa           0.41;
        E               9.8;
        type            epsilonWallFunction;
        value           nonuniform List<scalar> 
43
(
0.00336777
0.00362362
0.00386705
0.00532556
0.00449791
0.00313095
0.00187996
0.00115779
0.000823425
0.000572118
0.000398374
0.000290038
0.000215325
0.00016814
0.000139757
0.000121182
0.000107496
9.65787e-05
8.81426e-05
8.27375e-05
8.07803e-05
8.22504e-05
8.67093e-05
9.35521e-05
0.000102701
0.000114293
0.000128657
0.000146416
0.00016851
0.000196578
0.000232099
0.000276425
0.000331717
0.000400651
0.00048622
0.000603851
0.000660803
0.000621039
0.000499753
0.000395349
0.00984347
0.0172564
0.00289523
)
;
    }
    sWall
    {
        Cmu             0.09;
        kappa           0.41;
        E               9.8;
        type            epsilonWallFunction;
        value           uniform 0.00336777;
    }
    nWall
    {
        Cmu             0.09;
        kappa           0.41;
        E               9.8;
        type            epsilonWallFunction;
        value           nonuniform List<scalar> 6(0.000184282 0.000205618 0.000344784 0.000544321 0.000565766 0.000395349);
    }
    sideWalls
    {
        type            empty;
    }
    glass1
    {
        Cmu             0.09;
        kappa           0.41;
        E               9.8;
        type            epsilonWallFunction;
        value           nonuniform List<scalar> 9(0.000432798 0.00106108 0.00190708 0.00306329 0.0046497 0.00687176 0.00966078 0.0104478 0.00984347);
    }
    glass2
    {
        Cmu             0.09;
        kappa           0.41;
        E               9.8;
        type            epsilonWallFunction;
        value           nonuniform List<scalar> 2(0.00128189 0.00104489);
    }
    sun
    {
        Cmu             0.09;
        kappa           0.41;
        E               9.8;
        type            epsilonWallFunction;
        value           nonuniform List<scalar> 
14
(
0.000432798
0.000557902
0.000596576
0.000686362
0.000776642
0.00086911
0.000968736
0.00107732
0.00117188
0.00123403
0.00124118
0.00117484
0.00102238
0.000744297
)
;
    }
    Table_master
    {
        Cmu             0.09;
        kappa           0.41;
        E               9.8;
        type            epsilonWallFunction;
        value           nonuniform List<scalar> 9(0.000198143 0.000132963 9.11219e-05 6.45167e-05 4.72789e-05 3.58071e-05 2.79824e-05 2.25609e-05 1.88651e-05);
    }
    Table_slave
    {
        Cmu             0.09;
        kappa           0.41;
        E               9.8;
        type            epsilonWallFunction;
        value           nonuniform List<scalar> 9(0.000283194 0.000218119 0.000180049 0.000154988 0.000135705 0.000118215 0.000103047 8.84915e-05 7.32965e-05);
    }
    inlet
    {
        type            turbulentMixingLengthDissipationRateInlet;
        mixingLength    0.01;
        phi             phi;
        k               k;
        value           uniform 0.000471672;
    }
    outlet
    {
        type            zeroGradient;
    }
}


// ************************************************************************* //
