/*--------------------------------*- C++ -*----------------------------------*\
  =========                 |
  \\      /  F ield         | OpenFOAM: The Open Source CFD Toolbox
   \\    /   O peration     | Website:  https://openfoam.org
    \\  /    A nd           | Version:  6
     \\/     M anipulation  |
\*---------------------------------------------------------------------------*/
FoamFile
{
    version     2.0;
    format      ascii;
    class       volScalarField;
    location    "3960";
    object      k;
}
// * * * * * * * * * * * * * * * * * * * * * * * * * * * * * * * * * * * * * //

dimensions      [0 2 -2 0 0 0 0];

internalField   nonuniform List<scalar> 
458
(
0.00226773
0.002686
0.00280874
0.00308392
0.00334874
0.00360953
0.00388036
0.00416515
0.00440545
0.00455986
0.00457745
0.00441285
0.00402231
0.00325511
0.00187334
0.000457616
0.0006289
0.000808382
0.000878864
0.000851569
0.00074574
0.000636823
0.000546654
0.000474096
0.000415275
0.000367099
0.000327362
0.000294041
0.000265249
0.000239309
0.000214605
0.000200564
0.00016941
0.0041232
0.00755274
0.00415031
0.00437424
0.00471604
0.00513524
0.00563208
0.00619628
0.00680017
0.00731252
0.00758787
0.00753066
0.00712355
0.00635467
0.00513893
0.00326398
0.00224656
0.0014955
0.00045027
0.000973133
0.00130321
0.0014583
0.00147264
0.00125931
0.0010243
0.00083397
0.00068871
0.000577298
0.000490653
0.000421509
0.000364693
0.000317431
0.000283503
0.000264379
0.000493915
0.000292781
0.0060951
0.0136498
0.00491138
0.00472488
0.00494142
0.00528567
0.00575035
0.00634027
0.00699306
0.00754963
0.00789155
0.00794883
0.00769249
0.00706004
0.00603659
0.00488799
0.00391824
0.00208595
0.00106833
0.00139967
0.00160351
0.00173029
0.0017227
0.00134706
0.0010325
0.000802571
0.000637553
0.000518219
0.000430574
0.000365307
0.00031645
0.000280871
0.000262117
0.000265438
0.000780399
0.000408878
0.00835975
0.0222367
0.00592686
0.00470725
0.0047467
0.0050166
0.00547373
0.00616801
0.0068918
0.00746219
0.00783276
0.0079525
0.00774727
0.00714487
0.00628623
0.00543502
0.00463172
0.00349993
0.00276857
0.00250669
0.00237387
0.0023379
0.00228927
0.00215156
0.00170919
0.00143614
0.00126375
0.00114358
0.00104664
0.000954662
0.000871145
0.00078705
0.000694156
0.000530221
0.000422746
0.00113249
0.000542365
0.0110412
0.0339576
0.00842364
0.00474991
0.00448305
0.00470824
0.00529961
0.00635505
0.00718493
0.00773939
0.0080948
0.0081968
0.00789996
0.00718216
0.00621578
0.00530901
0.0045795
0.00397828
0.00379452
0.00347936
0.00325239
0.00307051
0.00285905
0.00259012
0.00230259
0.00210654
0.00198652
0.00189183
0.00178979
0.00166103
0.00149184
0.0012991
0.00109385
0.000865689
0.00066477
0.00092221
0.00106384
0.000969461
0.00108637
0.00128348
0.0143256
0.0466888
0.0149489
0.00592276
0.00474226
0.00478313
0.00570717
0.00726635
0.00803153
0.00847391
0.00873806
0.00874704
0.00831959
0.00737814
0.00612392
0.00496566
0.00418317
0.0038412
0.00381358
0.00382264
0.00373145
0.00350832
0.00318877
0.00283443
0.00254745
0.00239503
0.00232143
0.00226284
0.00218481
0.00206506
0.00187828
0.0016488
0.00140027
0.00114674
0.000935553
0.000900662
0.00103002
0.00105444
0.00165137
0.00138073
0.0179781
0.0550451
0.0270743
0.0123572
0.00830683
0.00741104
0.00850357
0.00920866
0.00948503
0.00964477
0.00972884
0.00958267
0.00894627
0.00770844
0.0061093
0.00469811
0.00388617
0.00373521
0.00389761
0.00398211
0.00385306
0.00354988
0.00317047
0.00281144
0.00256706
0.00246823
0.00245139
0.00245671
0.00245464
0.00242423
0.0023357
0.00214696
0.00191037
0.00165881
0.00145713
0.00136452
0.0014509
0.00168145
0.00223389
0.0019488
0.0189417
0.0568506
0.0383023
0.0271706
0.019741
0.0158798
0.0137247
0.0122881
0.0115359
0.0112118
0.0110092
0.0106094
0.00964613
0.00799432
0.00597373
0.0043919
0.00367695
0.00365496
0.00377945
0.0037498
0.0035165
0.00316979
0.00281983
0.00255033
0.00240793
0.00238367
0.0024313
0.00251746
0.00263044
0.00276736
0.00292567
0.0030669
0.00310916
0.003139
0.00329218
0.00386923
0.0051198
0.00681612
0.0128318
0.00467701
0.018204
0.0264669
0.0243623
0.0217106
0.0188863
0.0164643
0.0146538
0.0135901
0.0130861
0.012767
0.0123561
0.0115953
0.0100706
0.00776838
0.00515873
0.00385709
0.00340208
0.00330909
0.00325257
0.00309086
0.00282303
0.00252744
0.00228241
0.00213418
0.00208889
0.00212324
0.00220959
0.00233308
0.00249007
0.0026817
0.00290935
0.00317117
0.00348968
0.00390107
0.00444811
0.00509779
0.0056969
0.00606903
0.00624804
0.00408114
0.00718436
0.0110953
0.0135431
0.0147731
0.0154366
0.015707
0.0153762
0.0144498
0.0132102
0.0115849
0.00880993
0.00585902
0.00403631
0.00322546
0.00288131
0.00270022
0.00252793
0.00231818
0.00209088
0.00188811
0.00175207
0.00169317
0.00169793
0.00174775
0.00182983
0.0019393
0.00207753
0.00225115
0.00247287
0.00276577
0.00313121
0.00356696
0.00405087
0.00449031
0.00471243
0.00457261
0.00410654
0.00264223
0.00805113
0.0194682
0.021607
0.0214969
0.0207244
0.0184738
0.0153358
0.0120142
0.00883184
0.00623515
0.00435097
0.00326386
0.00271627
0.00241274
0.00221107
0.00203305
0.00184828
0.00166528
0.00150956
0.00139915
0.00133841
0.00132646
0.00135521
0.00141897
0.00151613
0.00164811
0.00181816
0.0020306
0.00229587
0.00262424
0.00302425
0.00349665
0.00401517
0.00451203
0.00481669
0.0051013
0.00428712
0.00271118
0.00890491
0.00935039
0.0097646
0.0120868
0.0107996
0.00848241
0.00603718
0.00437006
0.00348191
0.00273144
0.00214583
0.00173662
0.00142385
0.0012074
0.00106738
0.000970569
0.000896046
0.0008343
0.00078498
0.000752552
0.000740636
0.000749595
0.000776447
0.000816777
0.000869197
0.000933427
0.00101008
0.00110102
0.00120916
0.00133996
0.00149687
0.00168185
0.00189924
0.002154
0.0024507
0.00283153
0.00300688
0.00288501
0.00249597
0.00213495
)
;

boundaryField
{
    floor
    {
        type            kqRWallFunction;
        value           nonuniform List<scalar> 
36
(
0.00187334
0.000457616
0.0006289
0.000808382
0.000878864
0.000851569
0.00074574
0.000636823
0.000546654
0.000474096
0.000415275
0.000367099
0.000327362
0.000294041
0.000265249
0.000239309
0.000214605
0.000200564
0.00016941
0.00016941
0.000292781
0.000408878
0.000542365
0.000969461
0.00108637
0.00128348
0.00187334
0.00326398
0.00224656
0.0014955
0.000457616
0.0014955
0.00045027
0.00208595
0.00106833
0.00276857
)
;
    }
    ceiling
    {
        type            kqRWallFunction;
        value           nonuniform List<scalar> 
43
(
0.00890491
0.00935039
0.0097646
0.0120868
0.0107996
0.00848241
0.00603718
0.00437006
0.00348191
0.00273144
0.00214583
0.00173662
0.00142385
0.0012074
0.00106738
0.000970569
0.000896046
0.0008343
0.00078498
0.000752552
0.000740636
0.000749595
0.000776447
0.000816777
0.000869197
0.000933427
0.00101008
0.00110102
0.00120916
0.00133996
0.00149687
0.00168185
0.00189924
0.002154
0.0024507
0.00283153
0.00300688
0.00288501
0.00249597
0.00213495
0.018204
0.0264669
0.00805113
)
;
    }
    sWall
    {
        type            kqRWallFunction;
        value           uniform 0.00890491;
    }
    nWall
    {
        type            kqRWallFunction;
        value           nonuniform List<scalar> 6(0.00128348 0.00138073 0.0019488 0.00264223 0.00271118 0.00213495);
    }
    sideWalls
    {
        type            empty;
    }
    glass1
    {
        type            kqRWallFunction;
        value           nonuniform List<scalar> 9(0.00226773 0.0041232 0.0060951 0.00835975 0.0110412 0.0143256 0.0179781 0.0189417 0.018204);
    }
    glass2
    {
        type            kqRWallFunction;
        value           nonuniform List<scalar> 2(0.00467701 0.00408114);
    }
    sun
    {
        type            kqRWallFunction;
        value           nonuniform List<scalar> 
14
(
0.00226773
0.002686
0.00280874
0.00308392
0.00334874
0.00360953
0.00388036
0.00416515
0.00440545
0.00455986
0.00457745
0.00441285
0.00402231
0.00325511
)
;
    }
    Table_master
    {
        type            kqRWallFunction;
        value           nonuniform List<scalar> 9(0.00134706 0.0010325 0.000802571 0.000637553 0.000518219 0.000430574 0.000365307 0.00031645 0.000280871);
    }
    Table_slave
    {
        type            kqRWallFunction;
        value           nonuniform List<scalar> 9(0.00170919 0.00143614 0.00126375 0.00114358 0.00104664 0.000954662 0.000871145 0.00078705 0.000694156);
    }
    inlet
    {
        type            turbulentIntensityKineticEnergyInlet;
        intensity       0.05;
        value           uniform 0.000937501;
    }
    outlet
    {
        type            zeroGradient;
    }
}


// ************************************************************************* //
