/*--------------------------------*- C++ -*----------------------------------*\
  =========                 |
  \\      /  F ield         | OpenFOAM: The Open Source CFD Toolbox
   \\    /   O peration     | Website:  https://openfoam.org
    \\  /    A nd           | Version:  6
     \\/     M anipulation  |
\*---------------------------------------------------------------------------*/
FoamFile
{
    version     2.0;
    format      ascii;
    class       surfaceScalarField;
    location    "11600";
    object      phi;
}
// * * * * * * * * * * * * * * * * * * * * * * * * * * * * * * * * * * * * * //

dimensions      [1 0 -1 0 0 0 0];

internalField   nonuniform List<scalar> 
1482
(
-0.0027998
0.00286384
-0.00348414
0.000684334
-0.00414504
0.0006609
-0.00475936
0.000614329
-0.00528098
0.000521615
-0.00569309
0.00041211
-0.00598443
0.00029134
-0.00614191
0.000157482
-0.00614819
6.27952e-06
-0.0059773
-0.000170896
-0.0055993
-0.000377996
-0.00498322
-0.000616082
-0.00405891
-0.000924307
-0.0025801
-0.00147881
-0.00257718
-6.48486e-05
6.97021e-05
0.000777919
-0.000842767
0.00142959
-0.00065167
0.00182813
-0.000398544
0.00204903
-0.000220893
0.00215316
-0.000104129
0.00220056
-4.7404e-05
0.00222343
-2.28728e-05
0.00223315
-9.71925e-06
0.00223396
-8.09889e-07
0.00222682
7.14015e-06
0.00220779
1.90326e-05
0.00216359
4.41963e-05
0.00206109
0.000102508
0.00184499
0.000216102
0.00148866
0.000356322
0.00101909
0.000469578
0.00102552
-0.00204042
0.00507457
-0.00290863
0.00155255
-0.00369467
0.00144693
-0.00434595
0.00126561
-0.00488346
0.00105913
-0.00531246
0.00084111
-0.00563112
0.000609999
-0.0058326
0.000358965
-0.00590622
7.98928e-05
-0.00584414
-0.000232977
-0.00564059
-0.000581547
-0.00528429
-0.000972382
-0.00477408
-0.00143451
-0.00428801
-0.00196488
-0.00470377
-0.00216143
-0.0031171
-0.00158122
-0.00163344
-0.00147798
-0.00161859
0.00131742
-0.00123751
0.00166066
-0.001186
0.00191095
-0.000901958
0.00210067
-0.00058827
0.0022067
-0.000326919
0.00221528
-0.000112715
0.00221734
-4.94549e-05
0.00221904
-2.45785e-05
0.00222007
-1.07434e-05
0.00222009
-8.32781e-07
0.0022187
8.52555e-06
0.00221447
2.32619e-05
0.00220183
5.68428e-05
0.00213994
0.000164393
0.00189052
0.000465525
0.00146196
0.000784884
0.000900431
0.0010311
0.00194284
-0.00148829
0.00682079
-0.00235926
0.00242352
-0.00312941
0.00221708
-0.00371384
0.00185004
-0.00418473
0.00153002
-0.00455639
0.00121277
-0.00483058
0.000884189
-0.00500404
0.000532425
-0.00507035
0.000146204
-0.00502045
-0.000282881
-0.00484362
-0.000758375
-0.00453249
-0.00128351
-0.00411795
-0.00184905
-0.0037207
-0.00236213
-0.00330061
-0.00258152
-0.0023695
-0.00251232
-0.00127557
-0.00257191
-0.00288133
0.00114877
-0.00237183
0.00165157
-0.0016888
0.00194907
-0.00119946
0.00214055
-0.000779748
0.00216805
-0.000354422
0.00205549
0.00200619
0.00198177
0.00197118
0.0019705
0.00197918
0.00200259
0.00205959
0.00222414
0.0018652
0.000824463
0.00141764
0.00123245
0.000800239
0.00164851
0.00276912
-0.00110609
0.00825809
-0.00192806
0.0032455
-0.00257023
0.00285925
-0.00303074
0.00231055
-0.00339846
0.00189774
-0.00368743
0.00150173
-0.00390062
0.00109738
-0.00403616
0.000667965
-0.00408651
0.000196554
-0.00403848
-0.000330912
-0.00387982
-0.000917036
-0.0036065
-0.00155683
-0.00324121
-0.00221434
-0.00281983
-0.00278351
-0.00228106
-0.00312028
-0.00156206
-0.00323133
-0.00087445
-0.00325951
-0.000695798
-0.00305998
0.00144008
-0.00212043
0.00137309
-0.00230484
0.0016889
-0.00200461
0.00200146
-0.00151202
0.0022678
-0.00104608
0.00254495
-0.000631576
0.0028569
-0.000312107
0.00302298
-0.000166228
0.00308709
-6.42621e-05
0.00306966
1.72719e-05
0.00297941
9.00949e-05
0.00281726
0.000162002
0.00257529
0.00024181
0.00223055
0.000344592
0.00172583
0.000504562
0.00158937
0.000960928
0.00126169
0.00156012
0.000736188
0.00217401
0.00353962
-0.000803782
0.00945507
-0.00157997
0.00402169
-0.00204874
0.00332802
-0.00236459
0.00262639
-0.00260912
0.00214227
-0.00279482
0.00168744
-0.00292669
0.00122925
-0.00300543
0.000746701
-0.00302445
0.000215576
-0.00296712
-0.000388245
-0.00282021
-0.00106394
-0.00257687
-0.00180016
-0.00224378
-0.00254743
-0.00182812
-0.00319917
-0.00132355
-0.00362484
-0.000747751
-0.00380713
-0.000217151
-0.00379011
0.000259954
-0.00353709
0.00112093
-0.0029814
0.00148681
-0.00267072
0.00174583
-0.00226363
0.00199831
-0.0017645
0.0022282
-0.00127598
0.0024424
-0.00084578
0.00264276
-0.000512458
0.00275212
-0.000275597
0.00278792
-0.000100055
0.00276183
4.33546e-05
0.00268027
0.000171657
0.00254568
0.00029659
0.0023568
0.000430692
0.00211112
0.000590268
0.00181655
0.000799134
0.00161003
0.00116745
0.00146705
0.00170311
0.00128498
0.00235608
0.00226588
0.00255872
0.00131474
0.000986071
0.0019019
-0.000558558
0.00202075
-0.000575831
0.0104773
-0.00132476
0.00477061
-0.00158448
0.00358774
-0.00175053
0.00279245
-0.0018647
0.00225644
-0.00193641
0.00175915
-0.0019721
0.00126494
-0.00197605
0.000750647
-0.00194507
0.000184594
-0.00185735
-0.000475967
-0.00170311
-0.00121818
-0.0014725
-0.00203077
-0.00116848
-0.00285145
-0.000796964
-0.00357069
-0.000377837
-0.00404397
6.19723e-05
-0.00424694
0.00046686
-0.00419499
0.000841023
-0.00391125
0.00129192
-0.0034323
0.00159065
-0.00296944
0.00179393
-0.00246691
0.00196533
-0.0019359
0.00211688
-0.00142753
0.00225116
-0.000980055
0.00235555
-0.00061685
0.00241323
-0.000333273
0.00242402
-0.000110848
0.00239319
7.41864e-05
0.00232553
0.000239316
0.00222481
0.000397311
0.00209496
0.000560535
0.00194283
0.000742402
0.0017825
0.000959463
0.00168968
0.00126027
0.00174273
0.00165005
0.00194725
0.00215156
0.00218214
0.00232383
0.00169672
0.0014715
0.000781521
0.000356639
0.00289987
-0.000543324
0.0115129
-0.00124352
0.00547081
-0.00119194
0.00353616
-0.00120049
0.00280099
-0.00119308
0.00224904
-0.00115992
0.00172598
-0.00110313
0.00120816
-0.00102841
0.000675919
-0.000930427
8.66146e-05
-0.000781823
-0.000624571
-0.000592929
-0.00140707
-0.000353244
-0.00227046
-6.98901e-05
-0.00313481
0.000234618
-0.0038752
0.000544358
-0.00435371
0.00083931
-0.00454189
0.00110206
-0.00445775
0.00133527
-0.00414445
0.00156696
-0.00366398
0.00172651
-0.003129
0.00182629
-0.00256669
0.00189614
-0.00200574
0.00195169
-0.00148308
0.00199805
-0.00102642
0.00202992
-0.000648712
0.00204164
-0.000344993
0.00202991
-9.91215e-05
0.00199554
0.000108555
0.00194162
0.000293233
0.00187189
0.000467043
0.00179141
0.000641018
0.00170842
0.000825394
0.0016374
0.00103048
0.00162064
0.00127703
0.00170144
0.00156926
0.00190006
0.00195294
0.00213823
0.00208566
0.00214989
0.00145984
0.00162409
0.000882447
0.00462678
-0.000483471
0.0125318
-0.00105144
0.00603879
-0.000697407
0.00318212
-0.000636799
0.00274038
-0.000568705
0.00218095
-0.000464406
0.00162168
-0.000335863
0.00107961
-0.00018525
0.000525306
3.49918e-06
-0.000102134
0.000221244
-0.000842316
0.000460553
-0.00164638
0.000717944
-0.00252785
0.000974738
-0.00339161
0.00120349
-0.00410396
0.00140297
-0.0045532
0.00156436
-0.00470329
0.00168233
-0.00457572
0.00176165
-0.00422377
0.00181478
-0.00371711
0.00182486
-0.00313908
0.00180008
-0.00254191
0.00175934
-0.001965
0.00171747
-0.0014412
0.00168187
-0.000990826
0.00165256
-0.000619401
0.00162572
-0.000318146
0.00159663
-7.00379e-05
0.0015632
0.000141991
0.00152573
0.000330702
0.00148559
0.000507175
0.00144591
0.000680702
0.00141269
0.000858617
0.00139627
0.0010469
0.00141867
0.00125463
0.00150479
0.00148314
0.00169817
0.00175956
0.00195065
0.00183317
0.00205752
0.00135297
0.00166291
0.00127708
0.00665528
0.00297645
0.0101426
0.00202093
0.0069943
0.000868083
0.00433497
0.000369842
0.00323862
0.000212934
0.00233785
0.000269075
0.00156554
0.000422514
0.000926175
0.000635825
0.000311996
0.000894551
-0.000360861
0.00115871
-0.00110647
0.00143671
-0.00192439
0.00170351
-0.00279465
0.00192971
-0.00361781
0.002091
-0.00426525
0.00218133
-0.00464354
0.00220329
-0.00472525
0.00216565
-0.00453809
0.00208211
-0.00414023
0.0019679
-0.00360291
0.00182866
-0.00299983
0.00167648
-0.00238973
0.00152814
-0.00181666
0.00139819
-0.00131125
0.00129477
-0.0008874
0.00121916
-0.000543797
0.00116677
-0.000265748
0.00113051
-3.37805e-05
0.0011053
0.000167194
0.00108786
0.000348143
0.00107611
0.000518925
0.00107022
0.000686597
0.001073
0.000855838
0.00109014
0.00102976
0.00113261
0.00121216
0.00121257
0.00140318
0.00135626
0.00161587
0.00152079
0.00166864
0.0015573
0.00131648
0.000206234
0.0026282
0.00724647
0.00403052
0.00625228
0.00366628
0.00735854
0.00254081
0.00546044
0.00188765
0.00389178
0.00153109
0.00269442
0.00138613
0.0017105
0.00141963
0.000892675
0.00159348
0.000138148
0.00184481
-0.000612198
0.0021212
-0.00138286
0.00240036
-0.00220355
0.0026451
-0.00303938
0.00281378
-0.0037865
0.00287935
-0.00433084
0.00283844
-0.00460265
0.00270478
-0.0045916
0.00250066
-0.00433397
0.00225038
-0.00388996
0.00197674
-0.00332927
0.00169686
-0.00271995
0.00142787
-0.00212073
0.00118744
-0.00157624
0.0009902
-0.00111401
0.000842234
-0.000739434
0.000742621
-0.000444184
0.000682884
-0.000206012
0.000652386
-3.28201e-06
0.000642593
0.000176986
0.000646836
0.000343901
0.000660472
0.000505289
0.000681412
0.000665657
0.000709544
0.000827706
0.000745914
0.000993391
0.000792069
0.001166
0.000842014
0.00135323
0.000855486
0.00160239
0.000539401
0.0019847
-0.000907601
0.00276353
-0.0022728
0.00399358
0.00507738
0.00240906
0.00400775
0.00330369
0.00646391
0.00324761
0.00551652
0.00303681
0.00410258
0.00284565
0.00288558
0.00272213
0.00183401
0.00270787
0.000906935
0.00279625
4.97646e-05
0.00295742
-0.000773362
0.00316729
-0.00159273
0.00338418
-0.00242045
0.00354816
-0.00320336
0.0036045
-0.00384285
0.00352653
-0.00425288
0.00331962
-0.00439574
0.00300985
-0.00428185
0.00263169
-0.00395581
0.00221859
-0.00347686
0.00180018
-0.00291087
0.0014001
-0.00231987
0.00103974
-0.00176037
0.000738203
-0.0012747
0.000509197
-0.000885005
0.000350877
-0.000581114
0.000254997
-0.000348304
0.000205695
-0.00015671
0.000189967
1.24456e-05
0.000197608
0.000169345
0.000220541
0.000320968
0.000253962
0.000471867
0.000294792
0.000624827
0.000340754
0.000781744
0.000389641
0.000944504
0.000439163
0.00111648
0.000481469
0.00131093
0.000460085
0.00162376
0.000209872
0.00223476
-8.43052e-05
0.00305737
-0.000252768
0.00416193
0.00493912
0.00145656
0.00274543
0.00274787
0.0051726
0.00343215
0.00483224
0.00371831
0.00381642
0.00381669
0.00278719
0.00384446
0.00180624
0.00387997
0.000871429
0.00394838
-1.86579e-05
0.00405767
-0.000882648
0.00419698
-0.00173205
0.00431502
-0.00253848
0.00434121
-0.00322955
0.00422405
-0.00372569
0.00395133
-0.00398016
0.00354555
-0.00398996
0.00304659
-0.00378291
0.00249859
-0.00340781
0.00194042
-0.0029187
0.00140632
-0.00237676
0.00092302
-0.00183658
0.000517059
-0.00135441
0.0002057
-0.000963344
-6.19872e-06
-0.000673106
-0.000134926
-0.000452387
-0.00020435
-0.00027888
-0.000234562
-0.000126499
-0.0002368
1.46834e-05
-0.000218208
0.000150752
-0.000183852
0.000286611
-0.000137626
0.00042564
-8.34028e-05
0.000570604
-2.57365e-05
0.000724078
2.95776e-05
0.00088919
7.60275e-05
0.00107003
9.76072e-05
0.00128935
1.02814e-05
0.00171102
-0.000202972
0.00244768
-0.000112001
0.00296584
-7.50215e-06
0.00405697
0.00505839
0.0021697
0.000801679
0.00294268
0.00439962
0.00359424
0.00418068
0.00416496
0.00324569
0.00449284
0.00245932
0.00466691
0.00163217
0.0047832
0.000755138
0.00488706
-0.000122515
0.00499235
-0.000987936
0.00506931
-0.001809
0.00505243
-0.00252158
0.00488159
-0.00305871
0.00453429
-0.00337839
0.00402947
-0.00347534
0.0034123
-0.0033728
0.002734
-0.00310461
0.0020437
-0.00271752
0.00137984
-0.00225484
0.000781635
-0.00177856
0.000275339
-0.00133028
-0.000103657
-0.000975416
-0.00035282
-0.000714179
-0.00050065
-0.000525274
-0.000583146
-0.000369891
-0.000627656
-0.000234371
-0.000645018
-0.000109138
-0.00064025
9.91439e-06
-0.00061625
0.000126751
-0.000575368
0.000245728
-0.000520843
0.000371115
-0.000457747
0.000507508
-0.000394006
0.000660336
-0.000342411
0.000837596
-0.000326875
0.00105451
-0.000397628
0.00136014
-0.000627664
0.00194111
-0.00105123
0.00287112
-0.00164185
0.0035561
-0.00163901
0.00405372
0.00356026
-0.00157416
0.002621
0.00112054
0.00170492
0.0033523
0.00194892
0.00435551
0.00224248
0.00485987
0.00195496
0.00517433
0.0013177
0.00540168
0.000527792
0.00557842
-0.000299253
0.00567646
-0.00108596
0.00563373
-0.00176623
0.0053992
-0.00228703
0.00496102
-0.00262051
0.00434697
-0.00276433
0.00361022
-0.0027386
0.00281165
-0.00257423
0.0020022
-0.00229516
0.00123149
-0.00194682
0.000531351
-0.0015547
-4.94213e-05
-0.00119779
-0.000470856
-0.00090884
-0.000733775
-0.000712491
-0.00088658
-0.000561367
-0.000977118
-0.000434733
-0.00102972
-0.000317292
-0.00105826
-0.000205838
-0.00106734
-0.000100056
-0.00105801
5.74518e-07
-0.00103006
9.87989e-05
-0.000983689
0.00019936
-0.00092135
0.000308775
-0.000848551
0.000434708
-0.000775117
0.0005869
-0.000717657
0.000780135
-0.000705853
0.00104272
-0.000787625
0.00144201
-0.000980437
0.00213422
-0.00137522
0.00326629
-0.00237582
0.00455698
-0.00273811
0.00441621
0.000977774
0.00288275
0.00457248
0.00487329
0.0016481
0.00536075
0.00175502
0.00559773
0.00171798
0.00582865
0.00108677
0.00601481
0.000341642
0.00608004
-0.000364454
0.00595295
-0.000958821
0.00559978
-0.00141301
0.00503268
-0.00171991
0.0042984
-0.00188621
0.0034552
-0.00192112
0.00256268
-0.00184607
0.00167749
-0.00168904
0.000834599
-0.00145227
7.91255e-05
-0.00119135
-0.000528418
-0.000947154
-0.000949296
-0.000776897
-0.00120605
-0.000652075
-0.00136016
-0.000558361
-0.00145147
-0.000470047
-0.00150805
-0.00037815
-0.00154285
-0.000282498
-0.00156127
-0.000187433
-0.00156436
-9.69856e-05
-0.00155115
-1.26394e-05
-0.00151991
6.75501e-05
-0.00146924
0.000148687
-0.00139969
0.000239224
-0.00131462
0.000349637
-0.00122049
0.000492769
-0.00112667
0.000686293
-0.00104396
0.000959987
-0.000975963
0.00137408
-0.000877964
0.00203651
-0.000643413
0.00303226
-0.000361022
0.00427504
-4.50879e-05
0.00410069
0.00109747
0.00793267
0.00536384
0.00581348
0.00387418
0.00556575
0.00196567
0.00563713
0.00101538
0.00560193
0.000376856
0.00535929
-0.000121772
0.00489632
-0.000495809
0.00425247
-0.000769127
0.00348095
-0.000948361
0.00263503
-0.00104028
0.00175647
-0.00104254
0.000884514
-0.000974111
5.76516e-05
-0.00086217
-0.000660128
-0.000734483
-0.00120933
-0.000642129
-0.00158203
-0.000574441
-0.00182159
-0.000537304
-0.00196736
-0.000506268
-0.00206045
-0.000465234
-0.00212362
-0.00040687
-0.00216797
-0.000333802
-0.00219792
-0.000252583
-0.00221497
-0.000170427
-0.0022191
-9.28972e-05
-0.00220918
-2.25942e-05
-0.00218299
4.13462e-05
-0.00213785
0.000103557
-0.00207087
0.000172258
-0.00197888
0.000257653
-0.00185783
0.000371704
-0.00170231
0.000530696
-0.00150214
0.000759705
-0.0012274
0.00109923
-0.000800746
0.00160987
-0.000119457
0.00235124
0.000748671
0.00340725
0.00131333
0.00353645
0.00258145
0.00409343
0.00151696
0.00449485
0.00347274
0.00372689
0.00273362
0.00322908
0.00151321
0.00288881
0.000717163
0.00252567
0.000241396
0.00207903
-4.9151e-05
0.00153571
-0.000225795
0.000914605
-0.000327264
0.000233962
-0.000359642
-0.000465341
-0.000343239
-0.00112039
-0.000319071
-0.00167596
-0.000306592
-0.00209715
-0.000313285
-0.00239209
-0.000347154
-0.00258037
-0.000386109
-0.00270375
-0.000413861
-0.00279303
-0.000416918
-0.00286558
-0.000392653
-0.00292727
-0.000345179
-0.00297887
-0.000282245
-0.00301931
-0.000212231
-0.00304747
-0.000142368
-0.00306285
-7.76044e-05
-0.00306569
-1.98184e-05
-0.00305465
3.03024e-05
-0.00302523
7.41743e-05
-0.00297077
0.00011786
-0.00288103
0.000167972
-0.00274186
0.000232547
-0.0025355
0.00032426
-0.00223882
0.000462845
-0.00181095
0.000671088
-0.00117512
0.000973744
-0.000246607
0.00142254
0.000967651
0.00219305
0.00164355
0.0028607
0.0044035
-0.00262903
-0.00680037
-0.00742208
-0.00747345
-0.00375318
-0.00215187
-0.00167989
0.00139946
-0.000765809
0.00181955
-0.000563439
0.00131085
-0.000639283
0.000793015
-0.000823022
0.000425131
-0.00106444
0.000192263
-0.00135704
6.6788e-05
-0.00170414
1.98031e-05
-0.00208185
1.80481e-05
-0.00245509
2.99712e-05
-0.00279801
2.38433e-05
-0.00308357
-2.10184e-05
-0.00328056
-0.000116244
-0.00340146
-0.000226178
-0.00347966
-0.000307807
-0.00354593
-0.000347503
-0.00361433
-0.000348443
-0.00368758
-0.000319397
-0.00376316
-0.000269647
-0.00383726
-0.000208255
-0.0039057
-0.000143948
-0.00396371
-8.45318e-05
-0.00400573
-3.57272e-05
-0.00402575
1.16819e-07
-0.00402371
2.82555e-05
-0.00400181
5.23419e-05
-0.00395775
7.39398e-05
-0.00388344
9.38264e-05
-0.00376356
0.000112799
-0.00357361
0.00013438
-0.00327896
0.000168133
-0.00282319
0.000215116
-0.00210415
0.000254354
-0.001041
0.000358933
0.000235078
0.000916553
0.000828225
0.00226728
0.00542201
-0.00737539
0.0010286
-0.00814009
-0.0067087
-0.00718718
-0.00310473
-0.00566381
-0.000123888
-0.0045708
0.00072655
-0.00397882
0.00071885
-0.00371877
0.000532935
-0.0036508
0.000357106
-0.00369143
0.000232831
-0.00378491
0.000160193
-0.00388977
0.0001246
-0.00397817
0.000106412
-0.00403574
8.75177e-05
-0.00406629
5.44099e-05
-0.00408845
1.19532e-06
-0.00411993
-8.46766e-05
-0.00417284
-0.000173139
-0.00424897
-0.00023156
-0.00434397
-0.000252412
-0.00444873
-0.000243647
-0.00455272
-0.000215448
-0.00464671
-0.000175773
-0.00472449
-0.000130662
-0.00478308
-8.55759e-05
-0.00482173
-4.60976e-05
-0.00484054
-1.71071e-05
-0.00483936
-1.16797e-06
-0.00481528
4.15191e-06
-0.00477168
8.80242e-06
-0.0047082
1.0609e-05
-0.00461925
5.08426e-06
-0.00449291
-1.32946e-05
-0.00430963
-4.864e-05
-0.00404411
-9.71421e-05
-0.00367166
-0.000157122
-0.0031371
-0.00028006
-0.00219937
-0.000578744
-0.000479743
-0.000803183
0.000336423
0.00145082
0.00595985
0.0015703
-0.00507384
-0.00811567
-0.00818047
-0.00739995
-0.00663491
-0.00606242
-0.00567044
-0.00540567
-0.00521512
-0.00506072
-0.00492432
-0.00480611
-0.00472015
-0.00468675
-0.00473905
-0.00488005
-0.00507994
-0.00530129
-0.00551447
-0.00569991
-0.00584599
-0.00594712
-0.0060032
-0.0060198
-0.00600742
-0.00597919
-0.00594589
-0.00590836
-0.00586967
-0.00583733
-0.00582441
-0.00584804
-0.00592159
-0.00605669
-0.00631644
-0.00687659
-0.00766267
-0.00619586
)
;

boundaryField
{
    floor
    {
        type            calculated;
        value           nonuniform List<scalar> 
36
(
0
0
0
0
0
0
0
0
0
0
0
0
0
0
0
0
0
0
0
-6.4391e-06
-1.68857e-05
-2.60359e-05
-3.43164e-05
-3.49302e-05
-2.86054e-05
-2.86327e-05
-2.92008e-06
-5.44182e-06
-5.68808e-06
-5.90834e-06
-4.85364e-06
-8.93929e-06
-1.02126e-05
-1.28344e-05
-1.44572e-05
-1.5445e-05
)
;
    }
    ceiling
    {
        type            calculated;
        value           nonuniform List<scalar> 
43
(
-5.78447e-05
-6.45103e-05
-6.28661e-05
-5.90738e-05
-5.39869e-05
-4.62361e-05
-3.96318e-05
-3.49676e-05
-3.20368e-05
-3.0453e-05
-2.98722e-05
-3.0037e-05
-3.06937e-05
-3.15131e-05
-3.21248e-05
-3.22659e-05
-3.20304e-05
-3.15644e-05
-3.10104e-05
-3.04933e-05
-3.00949e-05
-2.98438e-05
-2.97229e-05
-2.96864e-05
-2.96742e-05
-2.96214e-05
-2.94641e-05
-2.91482e-05
-2.86392e-05
-2.79262e-05
-2.70142e-05
-2.59173e-05
-2.46502e-05
-2.32274e-05
-2.16756e-05
-2.00638e-05
-1.85309e-05
-1.72531e-05
-1.63384e-05
-1.67363e-05
1.93415e-05
1.51864e-05
-0.000246548
)
;
    }
    sWall
    {
        type            calculated;
        value           nonuniform List<scalar> 9(-0.000140237 -0.000164519 -0.000194243 -0.000225955 -0.000245155 -0.000281089 -0.000423673 -0.000453525 -0.000483833);
    }
    nWall
    {
        type            calculated;
        value           nonuniform List<scalar> 
14
(
-9.02211e-05
-9.75915e-05
-0.00010282
-0.000103649
-0.00011447
-0.0001268
-0.000140958
-0.000155495
-0.000164151
-0.000170363
-0.000178413
-0.000190471
-0.000201777
-0.000219742
)
;
    }
    sideWalls
    {
        type            empty;
        value           nonuniform 0();
    }
    glass1
    {
        type            calculated;
        value           nonuniform List<scalar> 9(-6.40348e-05 -0.000170323 -0.000257926 -0.000331212 -0.000393199 -0.000446406 -0.000492221 -0.000535502 -0.00058718);
    }
    glass2
    {
        type            calculated;
        value           nonuniform List<scalar> 2(-0.000365602 -0.000384925);
    }
    sun
    {
        type            calculated;
        value           uniform 0;
    }
    Table_master
    {
        type            calculated;
        value           nonuniform List<scalar> 9(-1.53995e-07 -1.54112e-07 -1.54144e-07 -1.54164e-07 -1.54177e-07 -1.54182e-07 -1.5418e-07 -1.54166e-07 -1.54113e-07);
    }
    Table_slave
    {
        type            calculated;
        value           nonuniform List<scalar> 9(1.53663e-07 1.5372e-07 1.53719e-07 1.53736e-07 1.53757e-07 1.53801e-07 1.53868e-07 1.53962e-07 1.54089e-07);
    }
    inlet
    {
        type            calculated;
        value           uniform -0.0116484;
    }
    outlet
    {
        type            calculated;
        value           nonuniform List<scalar> 2(0.00985313 0.0122666);
    }
}


// ************************************************************************* //
