/*--------------------------------*- C++ -*----------------------------------*\
  =========                 |
  \\      /  F ield         | OpenFOAM: The Open Source CFD Toolbox
   \\    /   O peration     | Website:  https://openfoam.org
    \\  /    A nd           | Version:  6
     \\/     M anipulation  |
\*---------------------------------------------------------------------------*/
FoamFile
{
    version     2.0;
    format      ascii;
    class       volScalarField;
    location    "170";
    object      T;
}
// * * * * * * * * * * * * * * * * * * * * * * * * * * * * * * * * * * * * * //

dimensions      [0 0 0 1 0 0 0];

internalField   nonuniform List<scalar> 
458
(
302.872
302.607
302.592
302.587
302.583
302.578
302.573
302.565
302.556
302.546
302.541
302.546
302.565
302.589
302.618
302.965
302.927
302.906
302.911
302.926
302.94
302.954
302.968
302.983
302.998
303.012
303.027
303.042
303.058
303.074
303.092
303.114
303.154
303.045
302.643
302.618
302.618
302.617
302.615
302.609
302.595
302.571
302.543
302.525
302.528
302.55
302.575
302.596
302.607
302.62
302.646
302.975
302.882
302.866
302.879
302.899
302.913
302.926
302.939
302.953
302.967
302.981
302.996
303.011
303.026
303.044
303.066
303.094
303.145
303.231
302.692
302.653
302.663
302.675
302.682
302.681
302.658
302.61
302.551
302.514
302.513
302.542
302.573
302.595
302.608
302.619
302.639
302.896
302.841
302.838
302.866
302.902
302.91
302.922
302.935
302.949
302.964
302.98
302.997
303.013
303.03
303.049
303.07
303.096
303.147
303.423
302.754
302.692
302.712
302.744
302.772
302.782
302.749
302.665
302.563
302.502
302.498
302.535
302.579
302.61
302.626
302.635
302.644
302.658
302.691
302.744
302.81
302.88
302.941
302.99
303.027
303.058
303.086
303.111
303.134
303.155
303.175
303.192
303.162
303.134
303.124
303.155
303.614
302.832
302.734
302.755
302.805
302.86
302.892
302.842
302.713
302.567
302.488
302.484
302.533
302.595
302.644
302.669
302.678
302.687
302.712
302.756
302.82
302.895
302.971
303.04
303.099
303.145
303.182
303.212
303.236
303.254
303.265
303.269
303.265
303.238
303.196
303.162
303.166
303.294
303.408
303.402
303.79
302.935
302.801
302.8
302.853
302.933
302.975
302.89
302.723
302.557
302.465
302.468
302.538
302.629
302.702
302.743
302.763
302.781
302.819
302.877
302.949
303.026
303.101
303.166
303.221
303.264
303.297
303.323
303.34
303.35
303.352
303.346
303.331
303.301
303.256
303.21
303.193
303.251
303.298
303.346
303.953
303.101
302.956
302.931
302.964
303.041
303.031
302.888
302.676
302.494
302.414
302.45
302.562
302.694
302.798
302.86
302.894
302.924
302.973
303.038
303.109
303.18
303.245
303.3
303.344
303.377
303.403
303.421
303.431
303.432
303.425
303.411
303.39
303.358
303.316
303.271
303.243
303.256
303.279
303.314
304.182
303.547
303.38
303.285
303.254
303.225
303.059
302.786
302.516
302.35
302.333
302.448
302.63
302.815
302.946
303.024
303.06
303.095
303.149
303.214
303.276
303.334
303.383
303.422
303.452
303.473
303.488
303.496
303.497
303.493
303.481
303.464
303.442
303.412
303.378
303.343
303.323
303.33
303.351
303.475
304.512
304.209
303.978
303.768
303.584
303.259
302.783
302.361
302.125
302.104
302.264
302.531
302.797
303.03
303.143
303.197
303.232
303.271
303.321
303.375
303.425
303.466
303.497
303.52
303.536
303.545
303.548
303.545
303.539
303.529
303.518
303.507
303.497
303.493
303.496
303.51
303.538
303.57
303.594
303.655
297.216
298.45
299.126
299.564
300.113
300.737
301.36
301.93
302.446
302.906
303.136
303.258
303.318
303.357
303.391
303.428
303.469
303.508
303.542
303.567
303.583
303.593
303.596
303.594
303.589
303.582
303.574
303.566
303.557
303.551
303.546
303.546
303.553
303.568
303.593
303.626
303.666
303.72
297.656
298.786
299.827
300.75
301.441
301.986
302.45
302.822
303.095
303.273
303.371
303.429
303.466
303.497
303.525
303.554
303.582
303.605
303.623
303.634
303.639
303.639
303.635
303.63
303.623
303.615
303.607
303.599
303.592
303.586
303.581
303.58
303.583
303.591
303.607
303.635
303.655
303.701
299.723
299.683
299.679
300.922
301.813
302.465
302.871
303.111
303.271
303.386
303.468
303.523
303.56
303.586
303.607
303.624
303.639
303.652
303.663
303.67
303.673
303.673
303.67
303.666
303.661
303.655
303.648
303.642
303.635
303.629
303.622
303.616
303.611
303.607
303.605
303.608
303.617
303.63
303.642
303.696
)
;

boundaryField
{
    floor
    {
        type            wallHeatTransfer;
        Tinf            uniform 305.2;
        alphaWall       uniform 0.24;
        value           nonuniform List<scalar> 
36
(
302.886
303.349
303.276
303.22
303.209
303.223
303.251
303.282
303.313
303.344
303.373
303.402
303.429
303.456
303.483
303.51
303.54
303.573
303.633
303.633
303.582
303.555
303.535
303.59
303.669
303.647
302.886
302.827
302.868
302.934
303.349
302.934
303.364
302.888
303.207
302.882
)
;
    }
    ceiling
    {
        type            wallHeatTransfer;
        Tinf            uniform 303.2;
        alphaWall       uniform 0.24;
        value           nonuniform List<scalar> 
43
(
299.927
299.884
299.875
301.038
301.887
302.508
302.892
303.117
303.266
303.371
303.445
303.493
303.524
303.546
303.563
303.577
303.59
303.6
303.607
303.611
303.612
303.61
303.606
303.601
303.596
303.59
303.585
303.58
303.575
303.571
303.567
303.564
303.561
303.56
303.561
303.566
303.575
303.586
303.594
303.639
304.451
304.169
297.998
)
;
    }
    sWall
    {
        type            wallHeatTransfer;
        Tinf            uniform 315.2;
        alphaWall       uniform 0.36;
        value           uniform 301.05;
    }
    nWall
    {
        type            wallHeatTransfer;
        Tinf            uniform 307.2;
        alphaWall       uniform 0.36;
        value           nonuniform List<scalar> 6(304.13 304.067 303.953 304.225 304.201 304.267);
    }
    sideWalls
    {
        type            empty;
    }
    glass1
    {
        type            wallHeatTransfer;
        Tinf            uniform 315.2;
        alphaWall       uniform 4.3;
        value           nonuniform List<scalar> 9(311.076 310.492 310.122 309.84 309.603 309.382 309.212 309.282 309.515);
    }
    glass2
    {
        type            wallHeatTransfer;
        Tinf            uniform 307.2;
        alphaWall       uniform 4.3;
        value           nonuniform List<scalar> 2(305.791 305.902);
    }
    sun
    {
        type            wallHeatTransfer;
        Tinf            uniform 305.2;
        alphaWall       uniform 0.24;
        value           nonuniform List<scalar> 
14
(
303.1
302.843
302.824
302.81
302.798
302.786
302.774
302.762
302.748
302.737
302.734
302.743
302.774
302.824
)
;
    }
    Table_master
    {
        type            zeroGradient;
    }
    Table_slave
    {
        type            zeroGradient;
    }
    inlet
    {
        type            fixedValue;
        value           uniform 295.15;
    }
    outlet
    {
        type            zeroGradient;
    }
}


// ************************************************************************* //
