/*--------------------------------*- C++ -*----------------------------------*=========                 |
  \      /  F ield         | OpenFOAM: The Open Source CFD Toolbox
   \    /   O peration     | Website:  https://openfoam.org
    \  /    A nd           | Version:  6
     \/     M anipulation  |
\*---------------------------------------------------------------------------*/
FoamFile
{
    version     2.0;
    format      ascii;
    class       volScalarField;
    location    "640";
    object      PPD;
}
// * * * * * * * * * * * * * * * * * * * * * * * * * * * * * * * * * * * * * //

dimensions      [0 0 0 0 0 0 0];

internalField   nonuniform List<scalar> 
458
(
41.477037131216335
29.47067102798664
28.023144070974197
26.77244646859404
25.988262002291464
25.646410292529026
25.749757965890993
26.345622712766854
27.59476874985124
29.717483209047842
32.98351497258405
36.40985369303503
37.19350128435234
37.623709522507966
38.22436159395627
44.1536417649111
43.44855658114423
43.24766861925718
43.599390014575775
43.85109247660935
44.05273147228002
43.822641510154945
43.62261202956043
43.65024987540722
43.77590222961043
43.90992728154689
44.08369150324805
44.31537785445265
44.6827099696956
45.25826927654031
45.699593817718174
45.928738309653276
46.69433030945044
38.01856181796736
30.008745059862832
29.470347421825096
28.201987496997546
27.467030412209297
27.101582310202616
27.14672048104255
27.505977446027472
28.149774217242722
29.218718989568345
31.05195838391785
33.94236142749581
37.026719713357316
37.57581408926549
37.935598625531654
35.81711573450595
35.815404644250194
36.903900791607306
41.688635790707
42.771606792383956
42.74659252994996
43.147321577841076
43.29943999677222
43.279326082416155
43.283157964930695
43.34427305781098
43.38263098117573
43.421925687077355
43.44546849254009
43.4890372496585
43.572969515606346
43.7376027821472
44.192658671539775
44.608469615912895
44.96302824408014
44.07988771966733
39.6323584112832
29.600059316239964
30.956207668893853
30.239094865431483
29.931094440780313
29.7666627013909
29.75984889643881
29.61850761440499
29.028394814114293
28.50982682650961
28.98876022304958
31.201833668925815
35.590908275934254
37.88755185790143
38.22436159395627
38.36905054891955
38.44316028115983
37.42453750088951
37.14419551763887
40.409229509519704
40.887765152307786
41.346245677794066
41.905799710746486
42.09356139699374
43.27540655075471
44.0275133054845
44.05273147228002
44.05273147228002
44.05273147228002
44.07795341044909
44.07795341044909
44.12840856560164
44.27986362488671
44.43145158565401
44.057800148620416
40.244022312638386
43.48893955599878
29.3152951797461
32.05217819482701
32.53599838190114
33.36796260400935
33.89595153155223
34.0153954550788
32.868063453161426
30.231726018958256
27.844155217154054
27.302160948700944
29.301501225225678
33.603392552888906
38.21518954693704
38.901300264495255
38.974086743209526
37.69204124992128
36.48405616053919
33.986458209747354
37.26358310791317
39.07420255879424
40.40080569175545
41.934003080788315
43.74653811566752
45.15695943416958
44.82325962585162
44.49093586420896
44.450543908392845
44.4855891214668
44.61598983587771
44.98746087649075
45.68761584126503
46.905151173985885
46.875446155061965
46.10713589681926
42.993131830545046
38.00048341456545
48.512187872484084
29.685918060242216
32.85315872767407
34.66195080936858
37.36832930344549
39.73373631780261
40.215529013153976
36.57565435536004
31.265371021996145
27.257224015612536
26.084301722335837
28.146809237733663
32.46621501270721
37.492119372617125
39.90022501498848
39.99815393958814
39.44698893112102
37.980934321888355
37.90338215484752
38.72074313800225
40.32498822973339
42.39346194296691
44.59619474585501
46.746325796533256
48.20716458827937
48.8475244460681
48.89173110678775
48.840972719208594
48.74549214668797
48.58595628721041
48.472058398119714
48.43441895411409
48.41461773267813
47.591801972598724
46.1513005893169
42.17749192048438
42.20454625066435
42.03843075310778
46.51542892671824
40.12172882789892
53.81233378739925
31.033495834454527
34.346266687615454
36.206876789897684
40.498076226295396
44.482010107750774
46.41330487658733
38.10048891504722
31.21450655828089
26.54644218177475
25.259390582566866
27.466537710938525
32.24262454070259
38.05641599844234
41.32801855321939
41.65026465065726
41.526231048502396
41.600637380703944
42.22414155400135
43.29766269303129
45.07881261814184
46.771033416908445
48.23287920854099
49.44383500072654
50.348232686280014
50.969435348544174
51.38396164357996
51.617251502499606
51.720960772845025
51.66910429837916
51.4098787460407
51.047136974087415
50.10504126081778
48.486460297213085
46.49520045711705
42.76531197841959
42.43589058596054
42.06168619236107
43.37234860023732
43.78235083117052
58.83458435250712
35.18123538266042
40.30677358960818
39.14168232275878
41.97073101652188
46.18363775858763
42.79746458133257
36.584050528110104
29.83202499386293
25.30809789862289
24.478494784029706
27.445038074731784
33.310546511658046
40.433367824239745
43.32297146261145
43.92667852838203
43.951881521529415
44.254611833965896
45.191317411262496
46.592099064542744
48.07862556926838
49.5212750232923
50.73639612547918
51.66910429837916
52.31754800582959
52.70682310957957
52.91448529888251
52.99236588415353
52.94044508498817
52.75873582780333
52.395392232169826
51.90248621564881
51.332130545953184
50.389551673757566
47.98710724035425
44.65812729230024
43.13636935861037
42.0349784251409
40.572903059338515
46.18456180573777
66.31576718012823
54.81325454975153
51.65757977357942
45.340914726739044
44.199547857349316
43.60621635528945
39.93683808131879
32.95162155807401
26.26908945174347
22.92278417254755
23.71514849440615
28.658484397584147
36.612923167400595
43.800720969658514
45.97969367425475
46.643209003513704
46.89892769775941
47.411179865143396
48.46441085350377
49.753688972346026
50.995334708453406
52.05811184284035
52.88852593567133
53.433747481132144
53.771318977259156
53.9011589011317
53.927127001498306
53.84922278438508
53.71938347400477
53.485679783815876
53.1481373457832
52.680867504585564
52.109993283927714
51.46171600712623
50.73639612547918
49.93454920364903
49.428142946924005
47.945591455782434
43.69786176215299
39.21835752416851
76.58279254724468
69.47261736129772
61.01733549023835
53.26597704680382
48.27304726443525
44.42864377127958
34.61457832606632
24.789285308929365
19.76174806153712
19.75282396815868
24.188053467463064
33.187614354978095
43.02197975650288
47.2317713371118
48.82491664397806
49.5212750232923
49.986238095724936
50.658739182306235
51.565402467311266
52.49919331690903
53.329885524366304
53.97906323352626
54.3168614684896
54.05563451881384
53.768246991451164
53.393307544565296
52.96859875882898
52.49798589037546
51.93945779760623
51.31578727469951
50.6004299652803
49.79062733121387
49.03136639248089
48.12233959192165
47.07134962459359
46.11543206758226
45.501658076812774
45.2773392614758
44.74867313322872
43.080548536558176
59.615535985272246
17.00616440268891
5.800294130298809
5.000518074222768
5.449718108693929
7.280435576848021
11.81820121362685
20.089706193600847
32.290109431683064
42.89674113793042
48.25859607832337
49.33765746188973
49.8016905784642
50.259603122521455
50.83431861249923
51.52522584375341
52.16643609883894
52.62325014829395
52.82664155513445
52.83910512501379
52.71386069881022
52.43243536088956
52.093069696874224
51.68739930277356
51.215347228915974
50.74430254419982
50.27522982215757
49.84393313827194
49.532605552408334
49.32340342596372
49.172636387857175
49.07209173578347
48.96620372650921
49.00307794761491
49.56938194170216
51.540541441132504
55.199364058585196
46.93568871563218
60.22670128354478
12.214120916359121
5.002156463039185
7.025006334086925
10.65979317398002
17.77351534621208
28.096441431369712
39.11980663278235
44.065945073679266
46.37035307721671
47.890572985659446
48.793502923660974
49.40153552481817
49.89042589210924
50.35438426386998
50.75577787146038
51.085830069937835
51.34055206920772
51.491732472829824
51.492781607600705
51.42968703726187
51.310161197663724
51.14260662396044
50.962615555997004
50.7795073631883
50.603383758791196
50.47297473289166
50.41337758116038
50.42249312689897
50.567760847743884
50.93711306265427
51.568141969220285
52.23641473345838
52.799045615587985
53.380516627817855
55.29723098951296
52.44358763384116
49.26207909294885
32.049882605445404
32.01547143934002
26.500988960524865
5.912040444981315
7.88457018978562
17.992094090659606
29.772681694965684
36.80928846001697
41.32060075927849
44.17281514439815
46.000730555963976
47.30609095105662
48.10474005565993
48.57707095451425
48.8727754097151
49.029723723409056
49.12290507519523
49.11759504695736
49.03283896959963
48.91550373222864
48.75253058019761
48.60860798767497
48.46374225368679
48.322930398251565
48.22055520001002
48.19415441753054
48.20226909020116
48.29285154889249
48.494425067160925
48.84746083066932
49.35831416691348
50.13769213698649
51.43224134891745
53.641019410674346
56.910786761204456
57.221489464352146
55.722497246330455
52.440174263790695
49.623239023256865
50.36327182333313
)
;

boundaryField
{
    ".*"
    {
        type            zeroGradient;
    }
}


// ************************************************************************* //
