/*--------------------------------*- C++ -*----------------------------------*=========                 |
  \      /  F ield         | OpenFOAM: The Open Source CFD Toolbox
   \    /   O peration     | Website:  https://openfoam.org
    \  /    A nd           | Version:  6
     \/     M anipulation  |
\*---------------------------------------------------------------------------*/
FoamFile
{
    version     2.0;
    format      ascii;
    class       volScalarField;
    location    "230";
    object      PPD;
}
// * * * * * * * * * * * * * * * * * * * * * * * * * * * * * * * * * * * * * //

dimensions      [0 0 0 0 0 0 0];

internalField   nonuniform List<scalar> 
458
(
40.34655796118342
28.420881281222023
26.841975294579115
25.64476141543085
24.983975707027497
24.78470593983259
25.111333547199024
26.060272279271885
27.837699387005543
30.70424153557643
34.465310767739524
36.69713572220901
37.19706094872629
37.481296819516764
38.00992748426067
46.374680237081314
45.507713418795824
45.202606716796325
45.685910256105124
46.09380054729834
46.425787942758774
45.9695784526589
45.82192270811754
45.91905254203678
46.09809968248931
46.31231561910662
46.590354919099184
46.92989407978108
47.38430465961329
48.076039753619334
49.25066638071797
49.95045233630765
50.96041006314478
36.72311463641008
29.041113676679657
28.38594999933123
27.20369623157417
26.554294069486986
26.333409098234426
26.548384544831265
27.06825517759073
27.92325835417286
29.39498635406416
31.78577444465236
35.895105155170356
37.292586684921794
37.5897859492752
35.258011253139614
34.0668879134455
34.99105803224664
36.97072333951409
44.863699770779405
44.49260621861771
44.46730043894191
45.0099657273545
45.05058696217051
45.20789087280809
45.33803899340717
45.55862741892894
45.736115353334206
45.895029896867385
46.08960629917324
46.27476578175705
46.52935628696117
46.867573836669095
47.495967528524204
48.60772119976047
49.22681742410188
49.13391592316543
37.91423340844255
28.73837416673858
29.982435005928025
29.44523925084441
29.19829141671717
29.126892999914674
29.145435640283523
28.62908908676721
27.75294735345122
27.541042068946183
29.089425254071386
32.91479220315587
36.93875526429064
38.32542708325383
37.14756459239459
36.45097159034123
36.6271750178211
36.867209379923096
39.52808267171822
41.567564924580964
41.73634477391258
42.48198863417725
43.45960741509656
43.841798604535036
45.23570592351078
46.363821316075544
46.783865602290454
46.988729128272226
47.19376675983568
47.42463614253534
47.655712750151615
47.88698958507968
48.23937654722519
48.659267947865686
48.60804639645174
45.38898002566993
41.442847194541514
28.558852176312826
31.220165567183585
32.02986837664447
33.05981429260281
33.60632371365111
33.25096284022899
30.735739970404936
27.525325050257536
25.916323422517266
27.16725716915964
30.98900412780813
35.50153075240313
38.88400857453734
39.00705840827712
37.76029787523304
35.989829865000175
34.735498119816384
33.15088782956437
36.1710339120544
38.426931126300744
40.477813877444795
42.89760489497878
45.46978663241376
47.469738612437006
47.76093342222306
48.01529941722776
48.49419121496646
49.046389674414954
49.746373020941775
50.58326452869884
51.707045530076215
53.36571591295168
52.51754786537361
50.98633303569
48.08149080910224
43.24750609624473
46.211681720138124
29.002546965045468
32.19481809448126
34.53720266449878
37.89148344564996
40.51206031206809
38.32776210802746
32.406653428827696
27.11529164036027
24.64151575981387
25.894604926278674
29.87969718499535
35.083347225858745
39.64092988673627
41.063226894834095
40.15334461739251
38.047912549604504
36.709106041594275
36.98987873382241
38.267832543208186
40.500790551508594
43.434624782254765
46.588209456411164
49.66465222385155
52.20353389265267
53.44086834655746
54.20397694049285
54.841578308698146
55.26732179446678
55.56994183382745
55.762970037937414
55.888762809985984
55.8292900704377
54.47763502462825
52.22274168843434
47.79000247996505
47.161334056103314
48.852374475933296
54.089093484595985
47.62340188741299
51.36261633891261
30.445514405253547
33.91626458189447
36.461155518254806
42.215244180538754
44.999470999884856
39.94493080166866
32.210105540752465
26.215701642961506
23.67222241893201
25.077857118261576
29.70773926617248
35.95675097706125
41.89586828961505
43.30730616356073
43.18171950965552
42.78476085727032
41.61712999526431
42.220341741816156
43.98593142223589
46.69449730317754
49.87122411069659
52.77733572835328
54.75253747407378
56.31074659962303
57.451413099705626
58.25344501393008
58.821612450667665
59.13111826409666
59.15689672794514
58.95060954918735
58.563468477430185
57.91729823224624
56.13835477317772
53.473567934527225
49.10146020801858
48.2496278164163
48.478396008629936
50.1218057000921
50.87896300304559
56.48187757669399
34.63794330686156
40.336951890141776
40.16840170367184
43.902810766060554
43.37142253583088
37.5089741505972
30.156862504055027
24.381019897059787
22.40465026616222
24.805683421336482
30.830927879599898
38.820563877966364
45.30425578432308
46.47690736013237
46.47690736013237
46.298040801921445
46.732677493372606
48.22139535457354
50.364534145451216
52.72537398165338
55.01231779044632
57.0109810252703
58.589291633075554
59.749184195270615
60.545446067034035
61.057784442344975
61.36462452230124
61.41572176530407
61.23682750888822
60.80175787340423
60.18615102818821
59.41456096560824
58.305133859000506
55.76466579693828
51.880624340541736
49.87048337513902
48.763830875711214
47.50808724690263
52.97129474645644
64.01946789010375
53.85549226626315
51.00009914992662
45.37331245435745
44.042229491485415
40.91626789162831
33.643291889411515
25.634335072360585
20.933604521321143
20.86571647878003
25.697339258151217
34.480527869981586
45.32289603287228
49.38176566389289
50.597619332826234
50.70124815092332
50.88264840079532
51.79048581249468
53.556945472240805
55.68771902918013
57.68441793122134
59.41456096560824
60.80175787340423
61.798548207294765
62.46034711011297
62.84107273252741
62.9931307706202
62.9931307706202
62.815716649622736
62.51115755561899
62.05335866624602
61.44126572291719
60.69926677100344
59.697729573185775
58.563468477430185
57.32191506935965
56.62206132761509
55.28061843130427
51.309654517898394
46.637409655527065
74.51987986305326
67.65326145044901
59.525405852869696
52.39303798087171
47.11909277332232
36.50633025810797
23.927424762637287
17.006488610871884
16.06415871383804
20.310743934038953
30.489680838733236
44.214443950655166
51.5050292687151
54.18075401788537
54.90265572845887
55.229029175674526
56.07716838137257
57.21829163659497
58.79580694208807
60.442843911708394
61.798548207294765
62.385665958836874
62.67858079757972
62.77211064042367
62.69796138641133
62.51571201513984
62.19262841756043
61.734609253309785
61.13494336373392
60.41328605529116
59.55366157663165
58.6316033284951
57.67670631889952
56.58899734899592
55.42494606442671
54.41908800503328
53.82270488117949
53.636847161184676
53.12680629181025
51.69984454077527
69.24036983721943
30.26173475078521
15.226836509855886
9.438273474680699
5.3733384041023555
6.408701567475603
14.514300659596401
29.70847212076862
45.78780756742327
52.94049876765867
54.71373456012642
55.62020242328807
56.24876582371414
56.984594239544656
57.9511590347296
59.15015869650151
60.38601410801669
61.3831730633904
61.9875719918122
62.27812447027338
62.27405047491053
62.09921704130073
61.78870032686641
61.40631139997935
60.95452908187187
60.449625385218575
59.94927947648756
59.47033995009938
59.00508703714293
58.626652906832554
58.290219967630485
58.010003796517836
57.805180379041005
57.792064608399194
58.39223543366919
60.50207262161066
64.8750821603291
57.31766791248757
68.53475801865835
18.094532481259662
5.337078429261894
6.911234269456287
16.022634003070337
30.400837541874424
41.86427009876914
48.16425361073133
52.86952971889212
55.38083545451761
56.764345777393956
57.68790166560431
58.43710892319758
59.213925757796844
60.014819067230775
60.828565208028905
61.53106741373446
62.03485114007596
62.321526147669644
62.38117845975291
62.30722343222259
62.13365759760249
61.91501514823064
61.67847174397776
61.39556364218536
61.096971227183396
60.79314384329218
60.5595606103778
60.367859492822035
60.29736328770751
60.48040273344571
60.86471664387448
61.343212839835374
61.764107396112685
62.33888532637477
64.40536850801038
61.584310337495445
59.29906266864006
28.401094265800737
28.682290376920363
23.52199207497884
5.0241943677001615
14.014087555784073
31.594275724166536
43.99372204771512
50.11651453038525
53.87466086843665
56.35800786611861
58.08373768223421
59.28736225260218
60.150163686740214
60.8590864559633
61.456600253305716
61.98365094547095
62.437626011489435
62.79904441964178
62.98876397494036
63.02187032044107
62.860078865837686
62.59194491855447
62.25570237837149
61.932332967765504
61.629447121032676
61.32616374593646
61.084569553729025
60.892783071341555
60.80093762406587
60.811094717643904
60.97695563854827
61.410360331144574
62.34147786879343
64.21352117351378
65.3810445006913
65.55539530760102
63.89229778570476
61.671653270239155
59.569648898399066
60.2211524302243
)
;

boundaryField
{
    ".*"
    {
        type            zeroGradient;
    }
}


// ************************************************************************* //
