/*--------------------------------*- C++ -*----------------------------------*\
  =========                 |
  \\      /  F ield         | OpenFOAM: The Open Source CFD Toolbox
   \\    /   O peration     | Website:  https://openfoam.org
    \\  /    A nd           | Version:  6
     \\/     M anipulation  |
\*---------------------------------------------------------------------------*/
FoamFile
{
    version     2.0;
    format      ascii;
    class       volScalarField;
    location    "230";
    object      T;
}
// * * * * * * * * * * * * * * * * * * * * * * * * * * * * * * * * * * * * * //

dimensions      [0 0 0 1 0 0 0];

internalField   nonuniform List<scalar> 
458
(
301.817
301.529
301.514
301.51
301.507
301.503
301.498
301.492
301.486
301.485
301.497
301.542
301.563
301.577
301.598
301.933
301.899
301.887
301.906
301.922
301.935
301.946
301.958
301.969
301.98
301.991
302.003
302.015
302.027
302.039
302.054
302.072
302.111
302.003
301.557
301.528
301.527
301.526
301.523
301.516
301.5
301.477
301.465
301.483
301.532
301.567
301.583
301.593
301.602
301.612
301.637
301.942
301.859
301.858
301.881
301.908
301.919
301.927
301.936
301.944
301.952
301.961
301.969
301.979
301.99
302.003
302.02
302.044
302.099
302.202
301.602
301.558
301.566
301.575
301.58
301.573
301.537
301.482
301.447
301.467
301.532
301.584
301.61
301.615
301.619
301.622
301.637
301.877
301.833
301.843
301.884
301.929
301.932
301.937
301.943
301.949
301.957
301.965
301.974
301.983
301.992
302.007
302.022
302.045
302.1
302.41
301.664
301.596
301.616
301.648
301.67
301.666
301.6
301.496
301.429
301.45
301.532
301.607
301.649
301.657
301.655
301.649
301.646
301.66
301.694
301.758
301.838
301.921
301.992
302.048
302.088
302.12
302.147
302.169
302.19
302.208
302.224
302.236
302.171
302.112
302.083
302.112
302.619
301.744
301.638
301.664
301.721
301.778
301.779
301.668
301.51
301.411
301.434
301.533
301.639
301.703
301.722
301.715
301.701
301.694
301.714
301.765
301.845
301.939
302.031
302.111
302.178
302.227
302.264
302.293
302.312
302.324
302.328
302.325
302.312
302.264
302.192
302.131
302.126
302.304
302.411
302.404
302.813
301.85
301.7
301.706
301.774
301.879
301.868
301.705
301.506
301.393
301.419
301.545
301.687
301.78
301.812
301.807
301.793
301.793
301.831
301.903
301.995
302.091
302.181
302.257
302.317
302.361
302.392
302.414
302.426
302.427
302.419
302.404
302.379
302.333
302.265
302.194
302.162
302.24
302.288
302.344
302.989
302.024
301.853
301.827
301.875
301.97
301.907
301.69
301.46
301.348
301.406
301.578
301.766
301.891
301.937
301.937
301.93
301.947
302.005
302.088
302.179
302.267
302.344
302.405
302.45
302.481
302.501
302.513
302.515
302.508
302.491
302.467
302.437
302.394
302.336
302.27
302.228
302.243
302.267
302.305
303.24
302.52
302.313
302.195
302.172
302.13
301.895
301.569
301.322
301.264
301.409
301.659
301.902
302.05
302.097
302.101
302.108
302.143
302.211
302.293
302.37
302.437
302.491
302.53
302.556
302.571
302.577
302.577
302.57
302.558
302.54
302.516
302.487
302.448
302.404
302.356
302.329
302.339
302.367
302.528
303.6
303.258
302.981
302.735
302.54
302.137
301.583
301.17
301.032
301.163
301.495
301.848
302.132
302.235
302.269
302.284
302.308
302.352
302.413
302.477
302.53
302.571
302.601
302.619
302.626
302.626
302.62
302.61
302.597
302.583
302.569
302.558
302.549
302.546
302.554
302.576
302.614
302.656
302.686
302.76
296.031
297.619
298.352
298.743
299.301
299.969
300.639
301.268
301.91
302.229
302.364
302.415
302.441
302.465
302.495
302.534
302.578
302.618
302.647
302.666
302.674
302.675
302.67
302.662
302.652
302.641
302.631
302.622
302.613
302.607
302.604
302.607
302.619
302.641
302.674
302.713
302.756
302.802
296.343
297.795
298.701
299.604
300.484
301.266
301.805
302.166
302.39
302.494
302.545
302.575
302.598
302.622
302.647
302.673
302.696
302.713
302.723
302.725
302.722
302.715
302.706
302.697
302.687
302.677
302.667
302.659
302.651
302.644
302.641
302.641
302.648
302.662
302.684
302.718
302.735
302.78
298.283
298.242
298.238
299.752
300.858
301.71
302.181
302.401
302.533
302.615
302.667
302.7
302.722
302.74
302.755
302.768
302.779
302.788
302.793
302.795
302.792
302.786
302.777
302.767
302.756
302.744
302.733
302.722
302.712
302.702
302.693
302.685
302.678
302.673
302.672
302.679
302.691
302.706
302.717
302.767
)
;

boundaryField
{
    floor
    {
        type            wallHeatTransfer;
        Tinf            uniform 305.2;
        alphaWall       uniform 0.24;
        value           nonuniform List<scalar> 
36
(
301.98
302.487
302.401
302.343
302.339
302.357
302.389
302.424
302.46
302.494
302.527
302.558
302.589
302.619
302.648
302.678
302.711
302.744
302.813
302.813
302.72
302.668
302.637
302.71
302.786
302.759
301.98
301.93
301.975
302.049
302.487
302.049
302.504
302.013
302.341
302.01
)
;
    }
    ceiling
    {
        type            wallHeatTransfer;
        Tinf            uniform 303.2;
        alphaWall       uniform 0.24;
        value           nonuniform List<scalar> 
43
(
298.566
298.523
298.514
299.926
300.987
301.805
302.257
302.466
302.592
302.672
302.723
302.755
302.777
302.793
302.808
302.82
302.831
302.841
302.848
302.851
302.85
302.845
302.838
302.829
302.819
302.808
302.797
302.786
302.775
302.764
302.753
302.743
302.735
302.728
302.724
302.727
302.737
302.752
302.765
302.813
303.582
303.256
296.755
)
;
    }
    sWall
    {
        type            wallHeatTransfer;
        Tinf            uniform 315.2;
        alphaWall       uniform 0.36;
        value           uniform 299.709;
    }
    nWall
    {
        type            wallHeatTransfer;
        Tinf            uniform 307.2;
        alphaWall       uniform 0.36;
        value           nonuniform List<scalar> 6(303.263 303.189 303.047 303.416 303.392 303.429);
    }
    sideWalls
    {
        type            empty;
    }
    glass1
    {
        type            wallHeatTransfer;
        Tinf            uniform 315.2;
        alphaWall       uniform 4.3;
        value           nonuniform List<scalar> 9(310.659 310.017 309.615 309.314 309.066 308.837 308.653 308.727 308.976);
    }
    glass2
    {
        type            wallHeatTransfer;
        Tinf            uniform 307.2;
        alphaWall       uniform 4.3;
        value           nonuniform List<scalar> 2(305.331 305.503);
    }
    sun
    {
        type            wallHeatTransfer;
        Tinf            uniform 305.2;
        alphaWall       uniform 0.24;
        value           nonuniform List<scalar> 
14
(
302.142
301.856
301.835
301.818
301.804
301.79
301.776
301.762
301.751
301.749
301.763
301.826
301.871
301.919
)
;
    }
    Table_master
    {
        type            zeroGradient;
    }
    Table_slave
    {
        type            zeroGradient;
    }
    inlet
    {
        type            fixedValue;
        value           uniform 293.15;
    }
    outlet
    {
        type            zeroGradient;
    }
}


// ************************************************************************* //
