/*--------------------------------*- C++ -*----------------------------------*\
  =========                 |
  \\      /  F ield         | OpenFOAM: The Open Source CFD Toolbox
   \\    /   O peration     | Website:  https://openfoam.org
    \\  /    A nd           | Version:  6
     \\/     M anipulation  |
\*---------------------------------------------------------------------------*/
FoamFile
{
    version     2.0;
    format      ascii;
    class       surfaceScalarField;
    location    "7400";
    object      phi;
}
// * * * * * * * * * * * * * * * * * * * * * * * * * * * * * * * * * * * * * //

dimensions      [1 0 -1 0 0 0 0];

internalField   nonuniform List<scalar> 
1482
(
-0.00278645
0.00285187
-0.00343264
0.000646195
-0.00206535
0.0050917
-0.00411535
0.000682705
-0.00294696
0.00152781
-0.00151842
0.00687455
-0.00476128
0.000645932
-0.00378098
0.00151672
-0.00240952
0.00241891
-0.00113144
0.00834528
-0.00532175
0.000560471
-0.00448202
0.00134697
-0.00322337
0.00233057
-0.00196957
0.00325704
-0.000823428
0.00957074
-0.00577729
0.000455536
-0.00507205
0.0011505
-0.00384995
0.00197355
-0.00263566
0.00299667
-0.00161206
0.00404567
-0.000587971
0.0106141
-0.00611457
0.000337281
-0.00555493
0.000938423
-0.00436135
0.0016619
-0.00311988
0.00245777
-0.00208122
0.00346583
-0.00134761
0.00480531
-0.000546782
0.0116618
-0.00631913
0.000204558
-0.00592721
0.000709556
-0.00477138
0.00134845
-0.00351076
0.00205278
-0.00240195
0.00277849
-0.00158711
0.00370533
-0.00126022
0.00551875
-0.000524549
0.0127295
-0.00637255
5.34227e-05
-0.00618099
0.000458332
-0.00508248
0.00102066
-0.00382065
0.00165834
-0.0026536
0.00230443
-0.0017456
0.00293699
-0.00117272
0.00361782
-0.00109857
0.00609277
0.00291771
0.0104062
-0.00624835
-0.000124204
-0.00630537
0.000177806
-0.00529288
0.000668727
-0.00405401
0.00125402
-0.00284455
0.00184929
-0.00185613
0.00241496
-0.00116817
0.00293245
-0.00068903
0.00320828
0.00193868
0.0070718
0.0040749
0.00647347
-0.00591249
-0.000335856
-0.00629243
-0.000137147
-0.00539845
0.000283377
-0.00421187
0.000826579
-0.00298029
0.00138975
-0.00192346
0.00191662
-0.00115128
0.00239806
-0.000602681
0.0028461
0.000810612
0.00433635
0.00366959
0.00747711
0.00248634
0.00415327
-0.00532672
-0.000585774
-0.00613881
-0.000489479
-0.00539359
-0.000142006
-0.00429072
0.000362229
-0.00306439
0.000910681
-0.00195321
0.0014195
-0.00111095
0.0018763
-0.000515927
0.00231131
0.000359108
0.0032976
0.00251132
0.00549461
0.00336618
0.00659727
0.00154144
0.00280739
-0.00440252
-0.000924196
-0.00582833
-0.000896249
-0.00526885
-0.000614217
-0.004282
-0.000150727
-0.00309616
0.000393998
-0.00195072
0.000908185
-0.00104864
0.00135719
-0.00040238
0.00176275
0.000239093
0.00243132
0.00186784
0.00394108
0.00327997
0.00558083
0.0028501
0.00528861
0.00224314
0.000791588
-0.00284133
-0.0015612
-0.00534358
-0.00140895
-0.00501454
-0.00115057
-0.00417718
-0.00071904
-0.0030671
-0.000179782
-0.00191937
0.000362648
-0.000968223
0.000827768
-0.000273788
0.0012286
0.000316305
0.00168554
0.0015278
0.00277136
0.00305794
0.00416311
0.00352005
0.00491088
0.00306502
0.00446673
-0.00154253
0.00258136
-0.00283811
-0.0048657
-0.00203908
-0.00465701
-0.00176648
-0.0039754
-0.00135235
-0.00297064
-0.000815502
-0.00184911
-0.000250043
-0.000870465
0.00026489
-0.000134931
0.000688911
0.000472058
0.00107284
0.00139714
0.0018162
0.00286341
0.00296589
0.00379461
0.00388854
0.00372103
0.00425486
0.00119617
0.00172803
0.00284572
-0.00538439
-0.00231942
-0.0043216
-0.00237449
-0.00369705
-0.00204483
-0.00280471
-0.00151828
-0.00173844
-0.000926167
-0.000735619
-0.000384889
3.85505e-05
9.14081e-05
0.000667826
0.000493143
0.00143701
0.00103298
0.0027386
0.001941
0.00388641
0.00287409
0.00428968
0.00331989
0.00346489
0.00198615
0.00455908
-0.00361754
-0.00176083
-0.00394195
-0.00269908
-0.00336615
-0.00270539
-0.00256748
-0.00228205
-0.00157946
-0.00167726
-0.000580643
-0.00108114
0.00024378
-0.000590118
0.00090342
-0.000144186
0.00160864
0.000321514
0.00272504
0.00104653
0.00391037
0.00191703
0.00461655
0.00254722
0.00449283
0.00229195
0.00490496
0.00164027
-0.00185922
-0.00175213
-0.00294139
-0.0027614
-0.00288264
-0.00318258
-0.00224374
-0.00302912
-0.00136011
-0.0025014
-0.000391899
-0.001866
0.000463115
-0.00130048
0.00115243
-0.000839124
0.00185198
-0.000387534
0.00281821
0.000228347
0.00394603
0.00101087
0.00478993
0.00174365
0.00501059
0.00202946
0.00547016
0.00172675
0.00829224
0.00501626
-0.00184331
-0.00169109
-0.00300243
-0.00217661
-0.00346743
-0.00179637
-0.00362995
-0.00106463
-0.00332461
-0.000160964
-0.00273233
0.000703102
-0.00210599
0.00142463
-0.00157268
0.00211585
-0.00110299
0.00298012
-0.000549451
0.00401714
0.000157233
0.00490551
0.000895292
0.00533187
0.00142237
0.00575663
0.00174299
0.00621323
0.00380574
0.00340162
0.00177297
-0.00352035
-0.00151571
-0.00366332
-0.001255
-0.00400879
-0.00069154
-0.00400303
0.000106826
-0.0035924
0.000955298
-0.00298453
0.00170464
-0.00238601
0.00240006
-0.00185689
0.00318988
-0.00131275
0.00412744
-0.000659747
0.00500857
5.41685e-05
0.00556423
0.000662935
0.00602111
0.00115789
0.00601115
0.00194506
0.00412397
0.00308339
-0.0040576
0.00807308
-0.00224246
-0.00158123
-0.00345483
-0.00076312
-0.0041552
-0.000279501
-0.00442082
0.000396456
-0.00429266
0.00119482
-0.00383193
0.0019671
-0.00324699
0.00268297
-0.00266891
0.00343107
-0.00209808
0.00428137
-0.00146668
0.00512709
-0.000778265
0.00576188
-0.000143484
0.00626881
0.000415241
0.00620303
0.000966028
0.00372188
0.00234717
-0.00196645
0.000992285
0.00239388
-0.00730709
-0.00722501
0.00826728
-0.00328465
0.000810459
-0.00237518
-0.000272385
-0.00394556
0.000113783
-0.00454848
0.000686003
-0.00471037
0.00140532
-0.00450316
0.00217929
-0.00404412
0.00292287
-0.0034869
0.00366265
-0.00290051
0.00445478
-0.00227149
0.00525702
-0.0015966
0.00592982
-0.000946184
0.00646463
-0.000339267
0.00633087
0.000287459
0.00339938
0.00128858
-0.00111452
0.00149528
-0.00590864
-0.000324013
-0.00660992
0.00739329
-0.00643303
-0.00777599
0.00455347
0.00240694
0.000970483
-0.00256697
0.000709623
-0.00335718
0.000520185
-0.00435196
0.000950964
-0.00481344
0.00158141
-0.00488646
0.00231824
-0.00464212
0.00307456
-0.00419582
0.00382263
-0.00364688
0.00458565
-0.00303139
0.00534739
-0.00236185
0.00601562
-0.00168237
0.00651397
-0.000995463
0.0062381
-0.000246428
0.00308013
0.000606776
-0.000976592
0.00115068
-0.00496471
0.000551399
-0.00804105
0.00126518
-0.00181752
0.00157344
0.000848633
0.00174239
0.00142174
-0.00219364
0.00117398
-0.00303132
0.0010463
-0.00388329
0.00120788
-0.00460887
0.00171427
-0.0049463
0.00237778
-0.004946
0.00311026
-0.00467783
0.00385548
-0.00422869
0.00459872
-0.00365996
0.00531937
-0.00300336
0.00594152
-0.00228772
0.00633213
-0.00150047
0.00584532
-0.000602616
0.00265912
0.00017464
-0.00109328
0.000723489
-0.00443697
0.00062297
-0.00743496
0.000587719
0.00099616
0.00117475
0.00141627
0.00125639
0.00183864
-0.00167329
0.001547
-0.00256666
0.00141878
-0.0034038
0.00148767
-0.00416307
0.00181312
-0.00470772
0.00236341
-0.00493193
0.00302789
-0.00486365
0.00373603
-0.0045584
0.00444278
-0.00407276
0.00510741
-0.003448
0.00564665
-0.00270847
0.00587924
-0.00183479
0.00516845
-0.000823566
0.00213974
-8.32143e-05
-0.00129251
0.00037387
-0.00419333
0.000479846
-0.00676409
0.000591947
0.000666717
0.00150419
0.000861298
0.00181136
0.00084271
0.00218154
-0.00118561
0.00189417
-0.00202047
0.00170445
-0.00285233
0.00169837
-0.0036145
0.00189209
-0.00424203
0.00229179
-0.0046361
0.00284568
-0.00474972
0.00347331
-0.00460095
0.00411008
-0.00422572
0.00469133
-0.0036567
0.00511656
-0.00291791
0.00517542
-0.00200462
0.00428596
-0.000952286
0.00153978
-0.000223618
-0.00152966
0.000153939
-0.00413233
0.000312831
-0.00624213
0.00125866
0.000502393
0.0018631
0.000580197
0.00207387
0.000426588
0.00250161
-0.000746654
0.00219824
-0.00148968
0.00194845
-0.00226447
0.00185063
-0.00300459
0.00192777
-0.00365018
0.00218206
-0.00413229
0.00259259
-0.00438301
0.00310027
-0.0043767
0.00362987
-0.00412076
0.00409903
-0.00363344
0.00438892
-0.00292907
0.00428222
-0.00202472
0.00329434
-0.001013
0.000876364
-0.000288891
-0.00181135
5.80625e-05
-0.00417125
0.000192803
-0.00589107
0.00176106
0.000331219
0.00211207
0.000339897
0.00216056
0.00289036
-0.000388906
0.00246928
-0.00101769
0.00215782
-0.00169905
0.00196635
-0.00238018
0.00192622
-0.00300303
0.00204116
-0.00350928
0.00229889
-0.0038386
0.00265903
-0.00394177
0.003052
-0.00379884
0.00338568
-0.00340743
0.00353346
-0.002778
0.00328274
-0.0019296
0.00226275
-0.000993134
0.000156479
-0.000293134
-0.00214232
4.20652e-05
-0.00424551
0.00013224
-0.00566231
0.00209228
0.000196323
0.00225565
0.000112324
0.00204839
0.00310762
-0.00021741
0.00272214
-0.000641774
0.00233644
-0.00119631
0.00205739
-0.00179009
0.00190313
-0.00235709
0.00188244
-0.0028443
0.0019881
-0.00319849
0.00219062
-0.00337018
0.00242964
-0.00331942
0.00261581
-0.00302898
0.00262094
-0.00249492
0.00225979
-0.00175506
0.00124513
-0.000911989
-0.000578574
-0.000258096
-0.00249703
6.15426e-05
-0.00431626
0.000112729
-0.0054952
0.0022886
8.89198e-05
0.00227905
4.25429e-05
0.002006
0.00320583
-9.83671e-05
0.00287128
-0.000366541
0.00247545
-0.000780793
0.00212932
-0.00126824
0.00187197
-0.00175892
0.00172276
-0.00219741
0.00168236
-0.00253855
0.00172837
-0.00273624
0.00181144
-0.00275198
0.0018467
-0.00255033
0.00172058
-0.00212862
0.00126731
-0.00150245
0.000281001
-0.00079094
-0.00126261
-0.000227977
-0.00283887
8.37051e-05
-0.00436473
0.000109927
-0.0053479
0.00237752
3.31963e-05
0.0022884
1.77074e-05
0.00198845
0.0032092
-3.52029e-06
0.00293373
-0.000160823
0.00255925
-0.000450336
0.00217924
-0.00083071
0.00184112
-0.0012374
0.00157779
-0.00161396
0.00140176
-0.00191681
0.00130206
-0.00211224
0.00123475
-0.00215955
0.00113203
-0.00203731
0.000883672
-0.00171342
0.000359623
-0.00122093
-0.00056411
-0.000657342
-0.00184371
-0.000209862
-0.00314778
8.08954e-05
-0.00438541
0.000104313
-0.00520309
0.00241072
1.09146e-05
0.00229519
4.80366e-06
0.0019838
0.00312895
8.00964e-05
0.00292342
6.78967e-06
0.00258718
-0.000188759
0.00220335
-0.000474447
0.00181277
-0.000802357
0.00145786
-0.00111747
0.00116481
-0.00137701
0.000933707
-0.00154846
0.000737845
-0.00161533
0.000508884
-0.0015364
0.000163591
-0.00131723
-0.000391202
-0.000962597
-0.00121822
-0.000566823
-0.00228407
-0.000217
-0.00340065
4.29795e-05
-0.00438726
8.27021e-05
-0.00506317
0.00242163
1.16224e-07
0.00229988
-4.60304e-06
0.00198856
0.00296716
0.000161637
0.00284773
0.000155793
0.00256507
2.89025e-05
0.00219856
-0.000183969
0.00178475
-0.00044643
0.00136666
-0.000711154
0.000981363
-0.000934027
0.000645317
-0.00108862
0.000340985
-0.0011516
2.19129e-05
-0.00112836
-0.000378051
-0.000994756
-0.000925311
-0.000783118
-0.00166174
-0.000519073
-0.0025906
-0.000260285
-0.00358029
-3.73529e-05
-0.00438366
3.9379e-05
-0.004944
0.00242175
-7.27184e-06
0.00230255
-1.38637e-05
0.00200257
0.00271669
0.000250316
0.00271031
0.000299049
0.00249837
0.000222493
0.00216535
6.21078e-05
0.00175259
-0.000151811
0.001301
-0.000380767
0.000853022
-0.000582814
0.00044022
-0.000728931
6.3688e-05
-0.000811319
-0.000307098
-0.000822585
-0.000723776
-0.000782629
-0.00124823
-0.000671823
-0.00193795
-0.000506884
-0.00278539
-0.000324243
-0.00368689
-0.000153632
-0.0043917
-2.92561e-05
-0.00486741
0.00241448
-1.44839e-05
0.00230317
-2.90626e-05
0.00203179
0.00235448
0.000362055
0.00251083
0.000449799
0.0023917
0.000405722
0.00210712
0.000280726
0.00171352
0.00010118
0.00125353
-0.000104347
0.000772061
-0.000299807
0.000311034
-0.000453628
-0.000108305
-0.000556937
-0.000501321
-0.000617093
-0.000916969
-0.000629385
-0.00143524
-0.000595595
-0.00210162
-0.000508111
-0.00290637
-0.000385837
-0.0037501
-0.000260929
-0.0044169
-0.000128319
-0.00485902
0.00239999
-2.63663e-05
0.00230047
-6.44596e-05
0.00209641
0.00182118
0.000533139
0.00224784
0.000625046
0.00225008
0.000591421
0.00202839
0.000484454
0.00166785
0.000326398
0.00121827
0.00013644
0.0007265
-5.8786e-05
0.000240318
-0.000229091
-0.000203904
-0.000358028
-0.000609615
-0.000448642
-0.00102998
-0.000504077
-0.00154151
-0.000523096
-0.0022005
-0.000496671
-0.00298849
-0.000425903
-0.00379716
-0.000338651
-0.0044654
-0.000212275
-0.0049497
0.00237363
-5.26912e-05
0.0022887
-0.000177537
0.0022741
-0.000854799
0.00166735
0.00100864
0.00193152
0.000849461
0.00208173
0.000793398
0.0019352
0.000684608
0.00161725
0.000535054
0.00119133
0.000353343
0.00070611
0.000156831
0.000210924
-2.93924e-05
-0.000250334
-0.000182661
-0.000670325
-0.000297317
-0.00109681
-0.000381812
-0.00160627
-0.000439309
-0.00226401
-0.000459545
-0.00305141
-0.000433671
-0.00384367
-0.00037927
-0.00453746
-0.000266435
-0.00512463
0.00232094
-0.000114259
0.00222543
-0.000492698
0.001912
-0.00128429
0.00132185
0.00162978
0.00170531
0.00123484
0.00190277
0.00102841
0.00183692
0.000891673
0.00156519
0.000736665
0.00116987
0.000556508
0.000702334
0.000357118
0.000209808
0.000157947
-0.00026332
-1.64067e-05
-0.000700254
-0.000152733
-0.0011365
-0.000257621
-0.00164719
-0.000340888
-0.00230723
-0.000396062
-0.0031032
-0.0004077
-0.00389486
-0.000382382
-0.00462789
-0.000288703
-0.00535427
0.00220668
-0.000234552
0.00196728
-0.000830163
0.00145787
-0.00173207
0.000779852
0.00227407
0.00154547
0.00178962
0.00179202
0.00134559
0.0017494
0.00111594
0.00151821
0.000938652
0.00115346
0.000753079
0.000708701
0.00055014
0.000226974
0.000339951
-0.00025184
0.000146467
-0.000705502
-1.11603e-05
-0.00115616
-0.000133081
-0.00167192
-0.0002329
-0.00233631
-0.000311821
-0.00314625
-0.000353004
-0.00395049
-0.000352024
-0.0047276
-0.000282597
-0.00560691
0.00197212
-0.000385007
0.00152212
-0.00110061
0.000826406
-0.00288611
0.00370158
0.001357
0.00246255
0.00183082
0.00175082
0.00171666
0.00137834
0.00148744
0.00114671
0.00114472
0.000947395
0.000721769
0.000740012
0.00025567
0.000521444
-0.00022209
0.000310201
-0.000688859
0.000129824
-0.00115656
-1.07589e-05
-0.00168251
-0.000122502
-0.00235374
-0.0002155
-0.00318016
-0.000277959
-0.00400838
-0.00029516
-0.00482589
-0.00025374
-0.00585419
0.00158712
-0.000514381
0.000935898
-0.0020327
0.00236839
0.00269019
0.00202637
0.002267
0.00178365
0.00168383
0.00149609
0.00136969
0.0011497
0.00114172
0.000740597
0.000928567
0.000291276
0.000704405
-0.000178739
0.000478092
-0.000652439
0.000273781
-0.00113636
0.000109621
-0.00167768
-1.56052e-05
-0.0023601
-0.00011619
-0.00320361
-0.000192145
-0.00406567
-0.000220786
-0.00491301
-0.000208156
-0.00607327
0.00107274
-0.00107934
0.00132904
0.00107578
0.00225966
0.0024569
0.00196962
0.00208104
0.00157075
0.00160916
0.00118071
0.00133869
0.000765973
0.00111634
0.000329976
0.000889867
-0.00012673
0.000652397
-0.000599073
0.000424726
-0.00109445
0.000231864
-0.00165413
8.6064e-05
-0.00235432
-2.14285e-05
-0.00321544
-0.000104471
-0.00411872
-0.000139272
-0.00498204
-0.000151951
-0.00624726
0.00190412
-0.000544998
0.00174528
0.00159016
0.00219856
0.00222795
0.0017559
0.00189589
0.00125295
0.00153692
0.000800424
0.00130424
0.000367833
0.00107849
-7.24833e-05
0.000835619
-0.000533845
0.000587168
-0.0010316
0.000361875
-0.00160823
0.000185961
-0.0023333
6.5015e-05
-0.00321554
-2.14259e-05
-0.00416215
-6.12421e-05
-0.00502956
-9.20125e-05
-0.00636536
0.00202643
0.000800518
0.00039977
0.00219892
0.0015898
0.00200512
0.00197873
0.00139798
0.00175086
0.000842089
0.00149526
0.000400794
0.00127128
-2.51709e-05
0.00103117
-0.000465332
0.000767106
-0.000951738
0.000507308
-0.00153816
0.000291804
-0.00229251
0.000145173
-0.00320431
5.37252e-05
-0.00418693
3.17258e-06
-0.00505469
-3.63851e-05
-0.00642368
0.00292678
0.00165503
0.000943664
0.00209723
0.0014977
0.00158007
0.00179664
0.000862903
0.00173004
0.000421206
0.00147485
2.08764e-06
0.00124402
-0.000407874
0.000973715
-0.000862961
0.000678327
-0.00144485
0.000413997
-0.00222772
0.000227017
-0.00317781
0.000118673
-0.00418549
5.21845e-05
-0.0050583
6.54327e-06
-0.00642643
0.00468725
0.00166258
0.00137834
0.00164988
0.00142787
0.000584896
0.00207461
0.00037489
0.00177635
-1.46974e-05
0.00149163
-0.000387299
0.00122345
-0.000779077
0.000889827
-0.00133206
0.000565531
-0.00213467
0.000320967
-0.00312997
0.000179229
-0.00416097
9.41372e-05
-0.00503315
2.68743e-05
-0.00638631
0.00672572
0.000282895
0.00274537
-0.000670682
0.00268332
7.46272e-05
0.00237469
-0.000153724
0.00191536
-0.000453201
0.00155758
-0.000722915
0.00116729
-0.00120581
0.000763553
-0.00200801
0.000438867
-0.00305187
0.00024295
-0.0041148
0.00013314
-0.00498014
4.10657e-05
-0.00632597
0.0074037
-0.00197038
0.0040451
-0.000352113
0.00310964
-0.000505706
0.00272645
-0.000676153
0.00213846
-0.000730117
0.00156484
-0.00107173
0.00103317
-0.00183987
0.00059536
-0.00293018
0.000317249
-0.00404411
0.00017242
-0.00490191
5.49525e-05
-0.00625169
0.00553992
-0.000553378
0.00424613
-0.000813245
0.00341676
-0.00115943
0.00320988
-0.000804778
0.0022134
-0.000924562
0.00141765
-0.00161714
0.000810306
-0.00274625
0.000411424
-0.0039409
0.000214237
-0.00479766
6.83174e-05
-0.00616398
0.00510467
-0.000778384
0.00421089
-0.00203305
0.00429033
-0.000898923
0.00330452
-0.000709637
0.00199861
-0.00130998
0.0011103
-0.00247496
0.000538875
-0.00379148
0.000262178
-0.00466154
7.83346e-05
-0.0060636
0.00445769
-0.00217789
0.00435558
-0.00136683
0.00475867
-0.000284742
0.00288007
-0.000841152
0.00152962
-0.00207923
0.000714299
-0.00357481
0.000322284
-0.00448078
8.16813e-05
-0.00595409
0.0024258
-0.00161869
0.00460789
0.000312981
0.00416136
-8.62615e-05
0.00212521
-0.00149476
0.00094476
-0.00325252
0.000391942
-0.00423513
7.68974e-05
-0.00584233
0.000966583
0.000784848
0.00413654
0.000972188
0.00310315
-0.000594761
0.00122481
-0.00274922
0.000441199
-0.00389891
5.5944e-05
-0.00573661
0.00191623
0.00151407
0.00359497
0.000834153
0.00167408
-0.00202432
0.000499471
-0.00342353
-3.40148e-05
-0.00565325
0.00360401
0.00159622
0.00283285
-0.00135037
0.000999593
-0.00261358
-0.000310351
-0.00566142
0.00538189
-0.000776907
0.00225888
-0.00108215
-0.000531822
-0.00594768
0.00480286
-0.000138741
0.00131523
-0.00645727
0.00487487
-0.00512157
)
;

boundaryField
{
    floor
    {
        type            calculated;
        value           nonuniform List<scalar> 
36
(
0
0
0
0
0
0
0
0
0
0
0
0
0
0
0
0
0
0
0
-6.60372e-06
-1.7464e-05
-2.70023e-05
-3.5612e-05
-3.64328e-05
-3.00862e-05
-3.00272e-05
-3.21478e-06
-6.01553e-06
-6.19485e-06
-6.3299e-06
-4.22775e-06
-9.57164e-06
-1.04387e-05
-1.40579e-05
-1.51349e-05
-1.65124e-05
)
;
    }
    ceiling
    {
        type            calculated;
        value           nonuniform List<scalar> 
43
(
-5.41494e-05
-6.19645e-05
-6.20423e-05
-5.88707e-05
-5.46275e-05
-4.78677e-05
-4.21244e-05
-3.82759e-05
-3.60494e-05
-3.49666e-05
-3.46821e-05
-3.49824e-05
-3.56676e-05
-3.64906e-05
-3.71905e-05
-3.75637e-05
-3.75283e-05
-3.72009e-05
-3.66489e-05
-3.59758e-05
-3.53027e-05
-3.47322e-05
-3.43191e-05
-3.40656e-05
-3.39338e-05
-3.38621e-05
-3.3776e-05
-3.35967e-05
-3.3259e-05
-3.27159e-05
-3.19516e-05
-3.09736e-05
-2.98052e-05
-2.84771e-05
-2.70194e-05
-2.54532e-05
-2.37645e-05
-2.20327e-05
-2.04625e-05
-2.01905e-05
1.86794e-05
1.46751e-05
-0.000158341
)
;
    }
    sWall
    {
        type            calculated;
        value           nonuniform List<scalar> 9(-0.000142216 -0.000166142 -0.000195559 -0.000227345 -0.000247241 -0.000283041 -0.000459265 -0.000481749 -0.000498175);
    }
    nWall
    {
        type            calculated;
        value           nonuniform List<scalar> 
14
(
-9.22854e-05
-9.98161e-05
-0.000105429
-0.000106513
-0.000118091
-0.000131438
-0.000146036
-0.000159094
-0.00016437
-0.00017352
-0.000181757
-0.000198089
-0.000211135
-0.000226812
)
;
    }
    sideWalls
    {
        type            empty;
        value           nonuniform 0();
    }
    glass1
    {
        type            calculated;
        value           nonuniform List<scalar> 9(-6.54167e-05 -0.000174484 -0.000264431 -0.000339285 -0.000402031 -0.000455374 -0.00050089 -0.000543161 -0.000594403);
    }
    glass2
    {
        type            calculated;
        value           nonuniform List<scalar> 2(-0.000375889 -0.000395008);
    }
    sun
    {
        type            calculated;
        value           uniform 0;
    }
    Table_master
    {
        type            calculated;
        value           nonuniform List<scalar> 9(-1.54154e-07 -1.54274e-07 -1.54304e-07 -1.54322e-07 -1.54332e-07 -1.54335e-07 -1.54331e-07 -1.54314e-07 -1.54257e-07);
    }
    Table_slave
    {
        type            calculated;
        value           nonuniform List<scalar> 9(1.53828e-07 1.53866e-07 1.53854e-07 1.53868e-07 1.53883e-07 1.53924e-07 1.53991e-07 1.54087e-07 1.54219e-07);
    }
    inlet
    {
        type            calculated;
        value           uniform -0.0116682;
    }
    outlet
    {
        type            calculated;
        value           nonuniform List<scalar> 2(0.0094631 0.0129864);
    }
}


// ************************************************************************* //
