/*--------------------------------*- C++ -*----------------------------------*=========                 |
  \      /  F ield         | OpenFOAM: The Open Source CFD Toolbox
   \    /   O peration     | Website:  https://openfoam.org
    \  /    A nd           | Version:  6
     \/     M anipulation  |
\*---------------------------------------------------------------------------*/
FoamFile
{
    version     2.0;
    format      ascii;
    class       volScalarField;
    location    "50";
    object      PMV;
}
// * * * * * * * * * * * * * * * * * * * * * * * * * * * * * * * * * * * * * //

dimensions      [0 0 0 0 0 0 0];

internalField   nonuniform List<scalar> 
458
(
1.3986912627245491
1.153450973174895
1.096062886472739
1.0606648469749487
1.045308996072188
1.0512486895536395
1.0809462120674973
1.1409729662162267
1.2386498150986072
1.2562701139211403
1.2408295738116848
1.2395371397221258
1.255784419713375
1.299139016616828
1.3311395966423942
2.7387213543643223
2.601526434758969
2.4291008372644187
2.4538366203924977
2.5303509983601047
2.641459570132711
2.741449961184454
2.8092637876732107
2.8479735475279426
2.8674439199029034
2.876116195337804
2.8791226583493326
2.8805971166016646
2.8812842594548527
2.882613989761695
2.8848304150971154
2.8904757494191147
2.8825656623611313
1.3432396749688291
1.1814874593100138
1.1448698603197094
1.1089500478012124
1.088674076987366
1.0791886411890232
1.0674372055660295
1.0683169144206888
1.1327200486458093
1.219790974732545
1.266335240561555
1.2903538276873878
1.3024098233129529
1.3088499253587236
1.3003092599706874
1.3161854855369204
1.3909889859360869
1.4965817873540532
2.7084868586406072
2.46556375645607
2.16818937530252
2.1513633932469647
2.2355839510503346
2.4257950384434257
2.612764766383204
2.7446001867760224
2.8210696041622283
2.859366180396928
2.8767714518494008
2.8837474311363
2.886270457280253
2.8869174929954604
2.887044759023103
2.887424789341483
2.8892643631011814
2.8841825669913472
1.355235826988687
1.1958548801860045
1.2073789446301655
1.194102576849613
1.1761350115956535
1.1337436245764834
1.0409596592486774
0.9775334433103231
1.0402519371233077
1.1673176811677564
1.2781646425537299
1.3466578812476566
1.3744648244493791
1.3746082614957722
1.361993588910657
1.3750084429674334
1.4116548355366323
1.446220869156171
2.663867175153874
2.178782386233702
1.9781666402652847
1.9447796809091014
2.0105379975931763
2.2380797646412396
2.53434427379874
2.724133694248809
2.817214965913127
2.8601081586672485
2.878633315670064
2.8863297578125784
2.889187303294461
2.8886752533263085
2.8876749518250997
2.88793053483583
2.8881226355295073
2.8829926115725133
1.4128195048911805
1.2163482164759194
1.2701525676270966
1.3087140160979636
1.3137236339933192
1.201781303991885
1.0075182312808322
0.9034878541987076
0.9721296476511161
1.135711845970019
1.3012891323556726
1.418310697398777
1.4721754567014393
1.4742931623882656
1.4519597493393692
1.4373056483575803
1.4256421461767783
1.4142524539116614
1.4332151396625747
1.6956809907569375
1.712275881454996
1.7366231567738382
1.7998220113478112
1.8970237180004033
1.9977841913899919
2.085856651508689
2.2089687947210916
2.381008941115186
2.58874952613042
2.7734634054404954
2.8716460164422983
2.9003287669371844
2.9059393480681224
2.892705975210963
2.889927020453471
2.888045189519554
2.881283713832122
1.494455594968087
1.2525884187258003
1.3296223631575939
1.4342867184706074
1.4880585255887906
1.2336892849357957
0.9636622488378161
0.8467424771321643
0.9261681099948447
1.1315153255258164
1.3528030995682134
1.5173337120268997
1.6003805957815098
1.6053703035278677
1.5673038314000383
1.5290762552025996
1.4981269309622678
1.4794277413821277
1.502347497301923
1.5578878412469328
1.6161959038023708
1.703625040284031
1.8161555464718826
1.9425097180763824
2.0682782483914424
2.2013973094945984
2.3702648538351374
2.5617177296086076
2.736799020759056
2.847248462760239
2.8911502700716967
2.904279551738688
2.9063930137730236
2.899361902583799
2.8938439951421095
2.890416521738953
2.8845900326784193
2.8900004343559864
2.894279891664094
2.8961252734771574
1.5862124567236937
1.3084615597931555
1.4055945336473035
1.549094866227101
1.4871448959554576
1.1946667011047205
0.9088866015911651
0.7886251233460362
0.8997806011760874
1.1635683600830187
1.4454862919189397
1.6557522304629653
1.7703693158264786
1.772704580532281
1.7110063972067184
1.6552328259649827
1.6154021398951846
1.5953232651371687
1.61488815737986
1.6655932377965075
1.749423328385031
1.8640244002681918
1.9978946920098162
2.1411272426176313
2.2958627925239474
2.4533874953781782
2.592656875092355
2.727093303705877
2.8287502779679286
2.879290473692735
2.8985999969151965
2.9063930137730236
2.9077537143018803
2.905186626279067
2.90057512152509
2.89722035174878
2.893396145260894
2.8950417098486287
2.8951671802821073
2.9007443783778926
1.6877786199842568
1.4126518639238286
1.5682380527230917
1.5850920596379676
1.4114201411551661
1.0934407967641953
0.793475737571676
0.7139585375611035
0.9035476058284109
1.2524248748796245
1.5994515198130204
1.8464376169671455
1.9082591171080319
1.8924217778876018
1.8525739840062034
1.8070920742916363
1.7724277507444817
1.7654462314709645
1.8067675576066835
1.8891912297131455
2.0021706085827775
2.137601809904186
2.283915434429094
2.4281515191472485
2.5623560289093983
2.647675689824547
2.7333662661459983
2.8122680861872613
2.8643253452200446
2.889205739526223
2.9001418302610658
2.9062272910159153
2.9090514482760605
2.910346116148859
2.90970949315289
2.9082027644872723
2.9053238468703984
2.9040157062843117
2.9007593851568783
2.9001518723034527
1.8213922582490374
1.7231403901805433
1.6975535441471314
1.582437613613844
1.2859445834900516
0.8669714753195494
0.5891032930238419
0.6353340799996225
0.9755131629628063
1.4416576263397176
1.8420940544549445
2.012790218010315
2.030946148478317
1.9993968902217902
1.9698290206642417
1.9538319311978105
1.9533523742805705
1.986433570545897
2.0673826317032
2.1845127736847645
2.315597955530675
2.448995247453488
2.5590546496732163
2.627877830536909
2.6931337876896175
2.753376921992433
2.808890980677828
2.8527125738384176
2.879237227935418
2.8929258658061068
2.900039907491731
2.9047780257919307
2.908054962772603
2.9104714494260966
2.9118640760561076
2.912009054739754
2.912418033836655
2.911820091201305
2.908991186455253
2.9065720078498645
2.0223543298673614
1.9244333862815441
1.8024949016628178
1.5028633979616648
0.825543558947989
0.3301396989277567
0.26882394521475733
0.6378293352172552
1.2313312919220771
1.8154470800279952
2.0611745019862715
2.1117083792464073
2.10954766850683
2.095392079884233
2.0895896375092193
2.1024186338295703
2.141953223341695
2.21458020935541
2.3165071250861167
2.427551725920204
2.5304163849331407
2.6156891443611148
2.6820469546274537
2.734377584157968
2.778867711725877
2.8174327440961564
2.849132330374247
2.872255895642949
2.8856601620361886
2.893505714306061
2.898799784868383
2.9032216378509825
2.9073470216366046
2.9104995564082015
2.912397469392777
2.9137071610480754
2.914734722202396
2.916462244448198
2.9175446056260967
2.917944835157997
-2.8250387717572485
-2.6065691345366107
-1.9645275045682074
-0.9438357991795777
0.12463537961849157
1.1737046144498875
1.8850910120980957
2.123875669204203
2.2159098781995774
2.2420217837710865
2.249597976647926
2.258033420719528
2.2760487142199546
2.3098984935356173
2.3625474585785056
2.4347386834889373
2.5187610751740688
2.6012280460623396
2.6722265125102296
2.7281865072886484
2.770290182399113
2.8031043430204403
2.8301377425306504
2.8518406824574463
2.8681630754490834
2.8800664272486056
2.8874493750061507
2.8921089678916565
2.8968064300051903
2.901030385663292
2.905377720984192
2.909983975358951
2.9129791059716563
2.915819037778975
2.917291331396822
2.9190607947611076
2.924490922024788
2.9094204009802263
-2.4709249385594005
-0.8432921931998584
0.4801862197233603
1.1941140512580697
1.6674023946468224
2.023092249685941
2.24196196771135
2.336542652692634
2.379558388337396
2.4041411835465594
2.4252648128553886
2.449826336364654
2.480977508386026
2.5212322881864626
2.5698613205805945
2.62400649329966
2.679344469958831
2.7286110730149544
2.768830927182649
2.800151612311526
2.8237190421778915
2.841675198379711
2.85560121513309
2.86702152987212
2.8748592475953685
2.880541174732625
2.8844652436859217
2.887626216008213
2.891149502744662
2.8952306666890135
2.9005568341440147
2.905863765378631
2.9119015900494905
2.9179436396401153
2.9206985035597466
2.914794474691928
2.904697813199667
2.9032011083938025
-0.25843677830671685
-0.2872498814534187
-0.20386003898672944
1.0851215548116608
1.8467421030362219
2.1920768625797185
2.348672494940291
2.4411048207913835
2.5006397928133017
2.5394155178906885
2.5691214593784206
2.5947178108732087
2.6190743769430167
2.643960527669796
2.6705215685766555
2.698210481730124
2.726991262065055
2.75463564836869
2.7800277694444415
2.801543082409171
2.81866866607574
2.83143757064803
2.8409552948685146
2.8477626271052077
2.852918531151386
2.856384018223043
2.858124916515584
2.8597478262963336
2.8607393221406268
2.862228733919761
2.8648010015092082
2.867936790279185
2.8721673453968277
2.8763671196212566
2.8799156528561154
2.883275406018821
2.8833324548891945
2.8793043709707837
2.873442242516711
2.865484879970148
)
;

boundaryField
{
    ".*"
    {
        type            zeroGradient;
    }
}


// ************************************************************************* //
