/*--------------------------------*- C++ -*----------------------------------*=========                 |
  \      /  F ield         | OpenFOAM: The Open Source CFD Toolbox
   \    /   O peration     | Website:  https://openfoam.org
    \  /    A nd           | Version:  6
     \/     M anipulation  |
\*---------------------------------------------------------------------------*/
FoamFile
{
    version     2.0;
    format      ascii;
    class       volScalarField;
    location    "50";
    object      PPD;
}
// * * * * * * * * * * * * * * * * * * * * * * * * * * * * * * * * * * * * * //

dimensions      [0 0 0 0 0 0 0];

internalField   nonuniform List<scalar> 
458
(
45.435802278904504
33.00125806916658
30.331172719328094
28.73979439087701
28.06325016054366
28.32393216808211
29.646222604611935
32.4115648142115
37.152804303763816
38.03662862437061
37.26170121921135
37.197118334040866
38.012159376938165
40.219030071756386
41.875264855797894
97.1853906178573
95.31355167251989
91.81906581191973
92.40683101577253
94.03788091315793
95.93405445007892
97.21557025304145
97.88778966215115
98.20928179434428
98.35542877721267
98.4173457081234
98.4383650866043
98.44859065882909
98.45333752144501
98.46249002411949
98.4776480070405
98.5157090833559
98.4621581583654
42.50700276391071
34.343909458122425
32.59519523438924
30.921278297477656
29.995393274062167
29.567099571425317
29.040852864458714
29.080078956033162
32.02427975547728
36.21597317527154
38.5450436266977
39.768253068714074
40.38730274130343
40.71931640765888
40.279207991997026
41.09858999666854
45.025971735422786
50.707068585739194
96.83369066477493
92.67500246059078
83.7324066641653
83.09300566305144
86.15293315288811
91.73822276305737
95.49486079261858
97.2500989776993
97.99035952755366
98.29601099928065
98.42194627196073
98.47025676730728
98.48743123366224
98.49181036404028
98.49267048697872
98.49523653940372
98.5076076915909
98.47323000840453
43.136079993167975
35.04114116142087
35.60473532221886
34.95577936828937
34.08573138825729
32.07219357618078
27.87317776941073
25.181258497362876
27.842314454614453
33.66231337445167
39.145766656501216
42.685978560659386
44.14985377082729
44.15743980233647
43.491618415648574
44.17860622481284
46.12752943777159
47.98261705100944
96.2539753611643
84.12784026338988
75.75457703044317
74.19593969176522
77.22459002534644
86.23818804806612
94.11545565231623
97.01970349656749
97.95731645277313
98.30153994518857
98.43495938744621
98.48783300795165
98.50709112622997
98.50365494409692
98.49692375823639
98.49864594961126
98.49993932429801
98.46508802309336
46.189790028638804
36.04600048793298
38.73852394832884
40.7123003629963
40.9711754263041
35.33050117870964
26.43500740102212
22.235487904054963
24.958978620592177
32.16442187725946
40.329619899488954
46.483581332510205
49.38407897916243
49.49869610184922
48.29193594721311
47.50279687457316
46.876440937063464
46.26641736513036
47.282943837684726
61.51075599331108
62.39814794101254
63.69248604725819
67.00058013439754
71.89706188508404
76.65043106778981
80.4748832753665
85.22418959551636
90.5890696808602
95.10091306808081
97.55112836207377
98.38567014875566
98.5802846676845
98.61602147818758
98.53053073505605
98.51204378395927
98.49941800501321
98.45333375689457
50.59165140199629
37.85129466756139
41.79625538222222
47.34051933162269
50.24457045552517
36.905455003371635
24.612959446126624
20.12780157335976
23.1146191874911
31.967929984168748
43.008291882936334
51.834860076076794
56.35743618924023
56.62887215993383
54.556224750406884
52.47386699564339
50.79096167213583
49.77674554414448
51.020187112578164
54.04318997862057
57.21738534116667
61.93604123341633
67.84123625872287
74.08846992815634
79.73852624528601
84.95346765681977
90.29833193990827
94.62772866851003
97.16397629732376
98.20364404615896
98.52020457126893
98.6055265847758
98.61887877248493
98.57405095614575
98.53804731773839
98.51531381854285
98.47600993125147
98.51253458623867
98.54091810748699
98.5530209560357
55.586215690366394
40.699268874011594
45.803860242773446
53.56412037842378
50.19502267946701
34.983250379792324
22.44287264270791
18.108045097704988
22.09376345032487
33.48298742364061
47.94304910071738
59.36142281979829
65.46912078936218
65.5912361261276
62.330403946571636
59.33335150204134
57.17425400670412
56.08222312369699
57.14632355518692
59.89278850201719
64.36891453631237
70.26493129661928
76.655433911865
82.6973041934216
88.1231784179794
92.39642719392292
95.16668207960427
97.05391551324105
98.05492886710088
98.43953165501264
98.56912300323212
98.61887877248493
98.62741994844961
98.61127002626563
98.58186944933757
98.56016428357042
98.53509302316586
98.54592439302942
98.54674758023789
98.5829574316511
61.086866059642865
46.180827189681885
54.607124468179585
55.52520367814731
46.11498543630514
30.21179897575729
18.271170822045292
15.723683221637472
22.23777671268958
37.84307000568586
56.30688419682761
69.3817952558721
72.44488116124379
71.67149402591971
69.69094271205537
67.3755563644654
65.5767661213317
65.21131509553538
67.358845429133
71.5127415200883
76.84864571407414
82.55985310120263
87.7474450040546
91.79590588021956
94.63927255477114
96.02479520149696
97.12542125462484
97.91427772464007
98.3326907992894
98.50721472551108
98.5790811552371
98.61783556938713
98.63552569078625
98.6435733188867
98.63962093873384
98.63022918165545
98.61213720197026
98.60385233050758
98.583053862348
98.57914582777089
68.10936338348017
62.97690545315449
61.61108100996255
55.380642293883724
39.542676971631046
20.863959021550883
12.273712717835068
13.472399936121775
25.098023991348697
47.736912427029324
69.1623329108855
77.32529264306419
78.1293982910704
76.7233962750522
75.369283151346
74.62264602039804
74.60011601904657
76.13394412227525
79.7006377274208
84.33944729510333
88.72778731274592
92.29416167835996
94.57937024091557
95.73037862633979
96.64259522119706
97.34453870877054
97.88448415974918
98.24577993100041
98.43916159359057
98.53198554778405
98.57842461890564
98.60868522900157
98.62930506059638
98.64435032674743
98.65295954105358
98.65385322743019
98.65637167219906
98.65268831118668
98.63515015773957
98.62000479547639
77.75059305543697
73.22610501396554
67.13858932667216
51.048213373886725
19.374628434184075
7.266523933762613
6.500591430755364
13.539734973742057
36.788108017705554
67.8049086607057
79.4370270386332
81.5321822723997
81.4449983005409
80.86845570055588
80.6294567474244
81.15580082177007
82.72942161106869
85.4229727267792
88.75515903908904
91.781250020306
94.03915702816276
95.54117190314827
96.49919023868705
97.13682196730333
97.6044943996944
97.95919477457612
98.2182621518049
98.39002168543985
98.48329131280828
98.53581625630304
98.57041655664162
98.59880361336099
98.62487164764599
98.64452452704406
98.65624513073033
98.66428479737426
98.67056503391234
98.68106889438236
98.68761534261219
98.69002931355827
98.02393743655588
95.3955635755667
75.12291028410746
23.81372909762524
5.3217828567537
33.96878503079034
71.31077712590493
82.01903727393639
85.46984392708734
86.37219983647189
86.62753940907852
86.90839792106716
87.49604775740275
88.55523100765545
90.08587466848738
91.95568790083817
93.80857132084407
95.3086651210928
96.36829929546039
97.06647523853535
97.51936053680733
97.83264763443324
98.06641407555053
98.23911026598591
98.36063654953553
98.44491652219692
98.49540242530142
98.52657497974705
98.55746760256444
98.58479434048459
98.61247754272493
98.64132617211126
98.65982042648504
98.67716595749374
98.68608584939551
98.69674101624918
98.7289991377461
98.63782305214687
92.79537374824042
20.00393830114983
9.8159403434544
34.95633804206216
59.99036773917621
77.78324897059686
86.37017224561644
89.34759076319855
90.55015953676141
91.19519904620353
91.72520558912099
92.31358460129235
93.01733701315827
93.85798609927144
94.77365422696785
95.67094693547868
96.46353535505163
97.07134182492698
97.5046433129334
97.8058115115427
98.01282301855495
98.15983277385247
98.26773195673952
98.35236381309944
98.40849028184687
98.4482036868542
98.4751589984285
98.49659518040895
98.52019946354453
98.54716395784097
98.58175185742616
98.61554497241602
98.65319083352757
98.69002210824274
98.70653971911707
98.67092948493226
98.60817734579692
98.59867288928903
6.386555939499132
6.714065521702523
5.8618537268288975
29.834621217226058
69.3971600483311
84.6162760936422
89.69626234378781
92.10806813362937
93.4375046613345
94.21291977684383
94.76051767810914
95.20110817301833
95.59433696068155
95.97074819454548
96.345200512958
96.70673754255768
97.05274104070347
97.35787235879941
97.6158292752924
97.8184906351389
97.96982846420798
98.0771245852237
98.15411166525305
98.20764329393353
98.24735246160218
98.27364257006928
98.28672914288
98.29885669118238
98.30623175072375
98.31726200400931
98.33617518110778
98.358999341308
98.38939046156506
98.41910873135178
98.44387137666226
98.46702615813419
98.4674169026096
98.4396282302889
98.398459196348
98.34117457733217
)
;

boundaryField
{
    ".*"
    {
        type            zeroGradient;
    }
}


// ************************************************************************* //
