/*--------------------------------*- C++ -*----------------------------------*\
  =========                 |
  \\      /  F ield         | OpenFOAM: The Open Source CFD Toolbox
   \\    /   O peration     | Website:  https://openfoam.org
    \\  /    A nd           | Version:  6
     \\/     M anipulation  |
\*---------------------------------------------------------------------------*/
FoamFile
{
    version     2.0;
    format      ascii;
    class       volScalarField;
    location    "3000";
    object      nut;
}
// * * * * * * * * * * * * * * * * * * * * * * * * * * * * * * * * * * * * * //

dimensions      [0 2 -1 0 0 0 0];

internalField   nonuniform List<scalar> 
662
(
0.000972981
0.00104865
0.00106394
0.00111353
0.00115981
0.00120357
0.00124677
0.00129182
0.00133766
0.00138038
0.00141462
0.00142889
0.00140486
0.00131947
0.00108023
0.000477248
0.000560556
0.000630996
0.000648726
0.00063413
0.000593025
0.000548445
0.000508537
0.000473862
0.000443647
0.000417194
0.000394074
0.000373493
0.000354698
0.000336846
0.000318968
0.000310358
0.000287038
0.00134253
0.00277229
0.00246471
0.00282474
0.00315689
0.00350538
0.00384713
0.00414071
0.00441971
0.00475497
0.00513205
0.00549843
0.00575859
0.00576885
0.00504869
0.00128243
0.00105492
0.000861972
0.000478877
0.00110669
0.00158783
0.00195951
0.00207626
0.00153563
0.00130257
0.00114306
0.00102473
0.000933744
0.000861126
0.00079633
0.000735689
0.000675866
0.000622992
0.000576301
0.00071214
0.000387851
0.00167559
0.0038648
0.00280203
0.00361788
0.00393413
0.00413178
0.0042462
0.00431926
0.00442986
0.00466014
0.00503325
0.00554545
0.00610046
0.00648408
0.00636763
0.00524453
0.00410466
0.00101756
0.000764641
0.00127911
0.00180761
0.00232858
0.00247293
0.000798742
0.000699952
0.000618147
0.000552035
0.000498745
0.000455597
0.00042058
0.000392203
0.000369964
0.000407885
0.000467582
0.000833765
0.000462816
0.00201584
0.00534234
0.0027835
0.00373154
0.00408567
0.00408747
0.00393433
0.00377254
0.00373345
0.00386922
0.00422191
0.00484034
0.00559529
0.00617683
0.00639786
0.00620138
0.00542174
0.00298063
0.00118688
0.00154178
0.00209191
0.00273174
0.00326832
0.00326427
0.000891768
0.000815154
0.000763876
0.000726848
0.000696062
0.000665344
0.00063572
0.000604521
0.000568046
0.000536484
0.00053091
0.00100424
0.000532817
0.00235404
0.00700757
0.0036007
0.00339136
0.00396476
0.00402106
0.00377289
0.00343615
0.00328116
0.00335509
0.00368395
0.00437547
0.00521669
0.00576088
0.0060107
0.00603005
0.0057635
0.00478092
0.00441996
0.00437447
0.00455088
0.0047702
0.00488238
0.00474911
0.00400944
0.0036424
0.00344485
0.00330441
0.00316267
0.00298371
0.00267711
0.00227914
0.00182714
0.00139209
0.00104407
0.000978489
0.000899995
0.000718785
0.000754788
0.000817977
0.00273883
0.00853188
0.00547035
0.00354723
0.00341732
0.00359928
0.00364296
0.00339016
0.00317722
0.00320385
0.00352206
0.00421894
0.00507016
0.00554962
0.0057033
0.00567904
0.00565686
0.00560938
0.00579771
0.00601887
0.00613188
0.00608053
0.00587498
0.00554067
0.00511041
0.00477055
0.00451179
0.00428966
0.00407742
0.00385974
0.00359696
0.00322812
0.00275625
0.00221596
0.0017113
0.0012207
0.00104368
0.000942236
0.00119303
0.000847983
0.00128751
0.00402316
0.00518933
0.00445281
0.00369198
0.00338032
0.00335204
0.00336061
0.00324516
0.00318271
0.00339218
0.00405324
0.0052015
0.00556571
0.00562277
0.00557099
0.00577383
0.00623583
0.00665766
0.0068404
0.00675503
0.00645104
0.00600418
0.00548868
0.00499343
0.00461144
0.00433346
0.00411359
0.00392483
0.00375886
0.00361378
0.00344216
0.00313018
0.00269349
0.00223896
0.00178922
0.00151064
0.00139867
0.00132305
0.000993889
0.00101574
0.00204824
0.00293754
0.00355438
0.00380851
0.0037321
0.00355391
0.00339871
0.00322444
0.00319195
0.00359602
0.00442895
0.00548378
0.00571833
0.0057091
0.00577202
0.00624574
0.00665144
0.00683145
0.00674574
0.00640588
0.00588073
0.0052694
0.0046817
0.00421632
0.00390227
0.00369377
0.00354526
0.00343852
0.00337265
0.00335373
0.0033778
0.00335008
0.00309331
0.00284826
0.00272078
0.00279002
0.00289798
0.00355791
0.00152074
0.000269788
0.00131768
0.00213126
0.00264313
0.00286876
0.0029186
0.00298435
0.00337611
0.00422325
0.00510879
0.00574843
0.00584766
0.00592368
0.00604299
0.00620492
0.00623617
0.00609648
0.00575506
0.00523883
0.00463965
0.00407385
0.00362818
0.00332281
0.00312217
0.00298027
0.00286891
0.00277524
0.00269241
0.0026147
0.00253657
0.00246528
0.00240518
0.00236885
0.0023533
0.0023106
0.00220688
0.00206227
0.00142609
0.000605784
0.000664396
0.00124903
0.00188548
0.00239557
0.00285878
0.00351545
0.00445325
0.00528721
0.00559232
0.00560827
0.00579608
0.00574151
0.00557521
0.00533974
0.00507583
0.00475051
0.00434016
0.0038871
0.00346468
0.00312694
0.00288388
0.0027149
0.00259335
0.00250031
0.00242634
0.00236832
0.002327
0.00230623
0.00231142
0.00233423
0.00236447
0.00239679
0.00241478
0.00239539
0.00233098
0.00208509
0.0011822
0.00105858
0.00269994
0.00137129
0.00122729
0.00187357
0.00266782
0.00345927
0.004301
0.00506906
0.00546116
0.0053735
0.0047449
0.00426077
0.00442999
0.00430154
0.00408463
0.00387112
0.00365281
0.003405
0.00313405
0.00287194
0.00264451
0.0024626
0.00232488
0.00222559
0.00215989
0.00212477
0.00211754
0.00213394
0.00216683
0.00221504
0.00228482
0.00236968
0.00246186
0.00254908
0.00261633
0.00267115
0.00277255
0.00187958
0.00122489
0.000820302
0.0019061
0.00258388
0.00310228
0.00353032
0.00388331
0.00411702
0.00417915
0.00401299
0.00361123
0.00282618
0.0016072
0.000827398
0.00080859
0.000789605
0.000769457
0.000750881
0.000732858
0.000715929
0.000701884
0.000692026
0.000687438
0.000688372
0.000694622
0.000705876
0.000721905
0.000742619
0.000768131
0.000798884
0.000835905
0.000879791
0.000929769
0.000986046
0.00104851
0.00111664
0.0011905
0.00123176
0.00111975
0.00104861
0.00118922
0.00214861
0.00546354
0.00507951
0.00405228
0.00349257
0.00335078
0.00337448
0.00330685
0.00320023
0.00323796
0.00367214
0.00449373
0.00159811
0.00257255
0.0032749
0.0037356
0.00379676
0.00364336
0.00347416
0.00330936
0.00317177
0.00332638
0.00398182
0.00486566
0.000852703
0.00175758
0.00242701
0.00278604
0.00290714
0.00293309
0.00311943
0.00375818
0.00469682
0.00541993
0.000501527
0.000928831
0.00157853
0.00215661
0.00261982
0.00315009
0.00396555
0.0049167
0.00551085
0.00561834
0.00293466
0.00224598
0.00106459
0.00152878
0.00227258
0.00305839
0.00387525
0.00471283
0.00531354
0.00549351
0.00509128
0.00453738
0.002025
0.00223541
0.00290041
0.00332222
0.00371984
0.0040174
0.00417401
0.00412587
0.00384366
0.00328288
0.00223844
0.00114134
0.00134342
0.00269097
0.0039896
0.00434082
0.00408436
0.00370715
0.00347893
0.00338592
0.00325938
0.00318898
0.00345908
0.00419592
0.00107169
0.00117774
0.00159129
0.00234777
0.00297488
0.00326129
0.00329282
0.00321166
0.00310662
0.00322376
0.00383631
0.0047429
0.000470603
0.000767791
0.00151439
0.00213277
0.00251183
0.00273426
0.00305115
0.00377792
0.0047518
0.00544035
0.000487541
0.000770909
0.00134134
0.00201676
0.00269027
0.00344713
0.00434258
0.00514836
0.00557381
0.00539301
0.00106803
0.00255478
0.00216674
0.00223098
0.00287452
0.00356866
0.00421565
0.00478146
0.00512748
0.00508122
0.00452159
0.0035598
0.00097769
0.000895888
0.00094926
0.000985334
0.00097896
0.000933648
0.000855271
0.000748958
0.000634428
0.000530217
0.00043093
0.000385878
0.0018585
0.00356639
0.00428428
0.00426061
0.00388585
0.00356834
0.00342686
0.00332758
0.0032022
0.00326344
0.00378173
0.00464214
0.00109347
0.00119604
0.00196379
0.00270047
0.003159
0.00329909
0.00325973
0.0031529
0.00311463
0.00346602
0.00428582
0.00513791
0.000459938
0.00113949
0.00185244
0.00235028
0.00263236
0.00285369
0.00335922
0.0042664
0.00515676
0.00561162
0.000548434
0.00103312
0.00167612
0.00235273
0.00304798
0.00389278
0.00477252
0.00543142
0.00554423
0.00528005
0.00283916
0.00248306
0.0020762
0.00253713
0.00322704
0.00389787
0.00451492
0.00499499
0.00516172
0.00487483
0.00404017
0.00336489
0.000872547
0.000926067
0.000969492
0.000987956
0.000960572
0.000898474
0.000804799
0.000690961
0.000581223
0.000479384
0.000395484
0.000395537
)
;

boundaryField
{
    floor
    {
        type            nutkWallFunction;
        Cmu             0.09;
        kappa           0.41;
        E               9.8;
        value           nonuniform List<scalar> 
36
(
0.000130111
5.68024e-05
6.74014e-05
7.62116e-05
7.84097e-05
7.66005e-05
7.14778e-05
6.5873e-05
6.08078e-05
5.63668e-05
5.24638e-05
4.90193e-05
4.5986e-05
4.32666e-05
4.07664e-05
3.83757e-05
3.5965e-05
3.47977e-05
3.1614e-05
3.16139e-05
4.51654e-05
5.49435e-05
6.38949e-05
8.7028e-05
9.14174e-05
9.90627e-05
0.000130111
0.000153452
0.000127155
0.000104342
5.68023e-05
0.000104342
5.70116e-05
0.000122778
9.26148e-05
0.00014248
)
;
    }
    ceiling
    {
        type            nutkWallFunction;
        Cmu             0.09;
        kappa           0.41;
        E               9.8;
        value           nonuniform List<scalar> 
58
(
0.000105596
0.000111964
0.0001171
0.000119278
0.000116053
0.000108694
9.74729e-05
8.36208e-05
7.00031e-05
5.70805e-05
4.61754e-05
4.61818e-05
0.000100196
9.79313e-05
9.5639e-05
9.31989e-05
9.09427e-05
8.87472e-05
8.66792e-05
8.49591e-05
8.37492e-05
8.31854e-05
8.33002e-05
8.40678e-05
8.54481e-05
8.74096e-05
8.99368e-05
9.3038e-05
9.67601e-05
0.000101219
0.000106474
0.000112423
0.000119077
0.000126412
0.000134355
0.000142905
0.000147654
0.000134716
0.000126424
0.00014276
0.000131699
0.000143578
5.82365e-05
9.93367e-05
0.000108378
0.00011471
0.000118967
0.00011822
0.00011287
0.000103537
9.07098e-05
7.66412e-05
6.35692e-05
5.0815e-05
4.49088e-05
0.000122612
0.000141469
7.3126e-05
)
;
    }
    sWall
    {
        type            nutkWallFunction;
        Cmu             0.09;
        kappa           0.41;
        E               9.8;
        value           nonuniform List<scalar> 4(0.000128668 0.000118076 0.000127565 9.93396e-05);
    }
    nWall
    {
        type            nutkWallFunction;
        Cmu             0.09;
        kappa           0.41;
        E               9.8;
        value           nonuniform List<scalar> 6(9.90636e-05 0.00010267 0.000120004 0.000141958 0.000146877 0.00014277);
    }
    sideWalls
    {
        type            empty;
    }
    glass1
    {
        type            nutkWallFunction;
        Cmu             0.09;
        kappa           0.41;
        E               9.8;
        value           nonuniform List<scalar> 10(0.000117606 0.000160509 0.000198024 0.000235506 0.000272087 0.000313036 0.000160578 0.000129228 0.000154197 0.000122657);
    }
    glass2
    {
        type            nutkWallFunction;
        Cmu             0.09;
        kappa           0.41;
        E               9.8;
        value           nonuniform List<scalar> 2(0.000180542 0.000169874);
    }
    sun
    {
        type            nutkWallFunction;
        Cmu             0.09;
        kappa           0.41;
        E               9.8;
        value           nonuniform List<scalar> 
14
(
0.000117535
0.000126423
0.000128211
0.000133988
0.000139353
0.000144403
0.000149369
0.000154527
0.000159754
0.000164609
0.000168487
0.0001701
0.000167382
0.000157682
)
;
    }
    Table_master
    {
        type            nutkWallFunction;
        Cmu             0.09;
        kappa           0.41;
        E               9.8;
        value           nonuniform List<scalar> 9(9.67416e-05 8.47227e-05 7.46169e-05 6.63316e-05 5.95648e-05 5.40203e-05 4.94722e-05 4.57517e-05 4.28119e-05);
    }
    Table_slave
    {
        type            nutkWallFunction;
        Cmu             0.09;
        kappa           0.41;
        E               9.8;
        value           nonuniform List<scalar> 9(0.0001079 9.87206e-05 9.25208e-05 8.80134e-05 8.42451e-05 8.04652e-05 7.68e-05 7.29177e-05 6.83478e-05);
    }
    inlet
    {
        type            calculated;
        value           uniform 0.000167705;
    }
    outlet
    {
        type            calculated;
        value           nonuniform List<scalar> 4(0.00293466 0.00224598 0.00106803 0.00269994);
    }
}


// ************************************************************************* //
