/*--------------------------------*- C++ -*----------------------------------*\
  =========                 |
  \\      /  F ield         | OpenFOAM: The Open Source CFD Toolbox
   \\    /   O peration     | Website:  https://openfoam.org
    \\  /    A nd           | Version:  6
     \\/     M anipulation  |
\*---------------------------------------------------------------------------*/
FoamFile
{
    version     2.0;
    format      ascii;
    class       volScalarField;
    location    "3000";
    object      nut;
}
// * * * * * * * * * * * * * * * * * * * * * * * * * * * * * * * * * * * * * //

dimensions      [0 2 -1 0 0 0 0];

internalField   nonuniform List<scalar> 
778
(
0.000894356
0.000953133
0.000949675
0.000990889
0.00102865
0.00106294
0.00109485
0.00112562
0.00115658
0.00118949
0.00122087
0.00125068
0.00128005
0.00131164
0.00134462
0.000632212
0.000905583
0.000912844
0.000890708
0.000853714
0.000804313
0.000755121
0.000709837
0.000669017
0.000632406
0.000599768
0.000570445
0.00054373
0.000518794
0.000494527
0.000469154
0.000448077
0.000405598
0.0013108
0.0025813
0.00226519
0.00261454
0.00286812
0.00313694
0.00340503
0.00365204
0.00385079
0.00396643
0.00403437
0.00400625
0.00380641
0.00331147
0.0024185
0.00147224
0.00140365
0.00134364
0.0011315
0.00192721
0.0026712
0.00311046
0.00313086
0.00247063
0.00211303
0.00186502
0.00167678
0.00152714
0.00139964
0.0012869
0.00118195
0.00107925
0.000987083
0.000907615
0.0010223
0.00051423
0.00166404
0.00360459
0.00267244
0.00382238
0.00427124
0.0046511
0.00499601
0.00529945
0.00555638
0.0057577
0.00595274
0.00615798
0.00634666
0.00645913
0.00638507
0.00584705
0.00427695
0.00164827
0.001427
0.00305217
0.00426018
0.00483218
0.0043955
0.0011598
0.00100847
0.000891678
0.000800288
0.000727578
0.000668912
0.000621079
0.000582183
0.000551858
0.000606661
0.000713668
0.00113014
0.000585076
0.00200527
0.00485867
0.00255748
0.00429809
0.00496262
0.00531835
0.0055799
0.00577329
0.00591745
0.00603411
0.00620002
0.00648047
0.00688991
0.00740508
0.00792344
0.00817971
0.00768311
0.00573692
0.00164129
0.0037958
0.00565044
0.00659503
0.00682953
0.00583196
0.00132042
0.00120107
0.00110866
0.00103175
0.000966202
0.00090735
0.000851883
0.00079681
0.000737336
0.000688768
0.000713932
0.00122355
0.000644325
0.00234201
0.00643353
0.00258055
0.00408614
0.00510779
0.00541129
0.00552166
0.0055261
0.00547121
0.00542238
0.00549157
0.00576388
0.00626392
0.00697236
0.00779425
0.00855187
0.00903226
0.00902631
0.00809999
0.00824057
0.00843046
0.0084586
0.00828807
0.00775891
0.00617569
0.00533499
0.00475897
0.0042914
0.00383227
0.00338725
0.0029518
0.00251701
0.00207057
0.00159046
0.00121362
0.00121243
0.000959387
0.000768413
0.00101684
0.000975712
0.00267367
0.00819692
0.00303852
0.00344594
0.00489423
0.00523101
0.00520453
0.00501747
0.00474974
0.00452877
0.0045236
0.00480907
0.00537896
0.00620046
0.00716165
0.00812249
0.00893914
0.00946118
0.00955622
0.00946064
0.00929379
0.00905699
0.00875213
0.00836365
0.00779607
0.00724888
0.00675186
0.0062717
0.0057527
0.00519821
0.00460595
0.0039711
0.00328973
0.0025669
0.00191249
0.00143604
0.00111549
0.0012503
0.00217586
0.00116691
0.00301226
0.00982846
0.00404992
0.00282336
0.0043978
0.00494833
0.00488771
0.00458484
0.00414518
0.00375843
0.00374739
0.00410829
0.00476101
0.00567992
0.00672416
0.00775792
0.00864725
0.00928414
0.00957725
0.00955503
0.00934615
0.00902943
0.00866643
0.00830402
0.00795326
0.00763115
0.00732835
0.00700528
0.00661459
0.0061442
0.00558744
0.00494184
0.00420985
0.00340982
0.00262751
0.0018997
0.00139962
0.00124902
0.0022176
0.00137561
0.00330363
0.0110652
0.00552294
0.00268907
0.00348361
0.00438677
0.00451324
0.00426446
0.0037445
0.00321909
0.00333868
0.00381646
0.00454711
0.00549423
0.00657971
0.0076618
0.00858397
0.00922427
0.00951507
0.00947729
0.00920718
0.00880843
0.0083792
0.00799828
0.00770455
0.00749461
0.0073307
0.0071525
0.00690404
0.00655632
0.00609599
0.00552046
0.00483505
0.00405955
0.00325233
0.00243896
0.00170453
0.00115161
0.00316436
0.00180017
0.00339332
0.0104824
0.00683845
0.00347892
0.00236197
0.00289344
0.00338747
0.00342997
0.00302899
0.00294449
0.00325071
0.00381299
0.00460394
0.00560943
0.0067478
0.00786318
0.00878133
0.00937117
0.00957782
0.00943487
0.00904286
0.00852842
0.00801755
0.00760967
0.00735075
0.00722372
0.00716602
0.00709738
0.00695405
0.00670242
0.00632937
0.00583354
0.0052209
0.00450715
0.00372288
0.00284252
0.00163837
0.00148452
0.00483526
0.00206728
0.00332452
0.00845586
0.0070665
0.00477765
0.00315427
0.00244119
0.00231147
0.00242039
0.0026243
0.00294863
0.00340878
0.00404216
0.00490349
0.0059888
0.00718976
0.00832047
0.00918932
0.00966604
0.00971418
0.00939167
0.00882504
0.00817253
0.00758927
0.00718927
0.00700609
0.00698504
0.00702485
0.00702398
0.00693058
0.00672627
0.00640503
0.00596636
0.00541317
0.00475005
0.00395826
0.00276862
0.00119006
0.0029569
0.0044878
0.00208834
0.00311407
0.00722908
0.00683469
0.00546919
0.00420791
0.00338669
0.00298043
0.00288837
0.00305637
0.0033658
0.00381576
0.00448495
0.00543728
0.00662818
0.00789026
0.00899558
0.00974172
0.0100159
0.0098168
0.00924305
0.00846488
0.00768468
0.00709026
0.00679183
0.00675829
0.00685727
0.006956
0.00695771
0.00685869
0.00666065
0.00636011
0.00595174
0.00542943
0.00477755
0.00392179
0.00249932
0.00127712
0.00324151
0.00449769
0.00207105
0.00283561
0.00651997
0.00659516
0.00579136
0.0049254
0.00427379
0.0038902
0.00375305
0.00378706
0.00397348
0.00438662
0.00513497
0.00623702
0.00755629
0.00884375
0.00983469
0.0103389
0.0102887
0.00974244
0.00885899
0.00787391
0.00704857
0.0065799
0.00648774
0.00657377
0.00670517
0.00678926
0.0067643
0.00664875
0.00644885
0.00615795
0.00575687
0.00522237
0.00450757
0.00353058
0.00223413
0.00146966
0.00326347
0.00500362
0.00209107
0.0025862
0.00583551
0.00630064
0.00591939
0.00536283
0.00489569
0.00458513
0.00443308
0.00438712
0.00454567
0.00507052
0.00604935
0.00738328
0.00880995
0.0100095
0.0107196
0.0108086
0.010291
0.00931432
0.00811903
0.00703393
0.00633747
0.0060365
0.00601135
0.00610964
0.00622685
0.00629345
0.00626705
0.00614753
0.00594451
0.00564509
0.00521276
0.00458126
0.00368708
0.0026147
0.00179829
0.00178002
0.00349872
0.00493003
0.0022255
0.00259526
0.00579278
0.00643915
0.00599247
0.00554152
0.00517246
0.0049062
0.0047325
0.00472302
0.00510898
0.00603606
0.0074236
0.00898676
0.0103598
0.0112237
0.0113968
0.0108683
0.00976653
0.0083671
0.00700834
0.0060229
0.00545372
0.00520473
0.00516468
0.00523029
0.00531493
0.00535915
0.00533106
0.00519806
0.00497454
0.00463174
0.00409585
0.00328786
0.00234067
0.00171782
0.00169024
0.00225965
0.00399573
0.0051031
0.00225259
0.00234232
0.002436
0.00359197
0.00421859
0.00441134
0.0044129
0.00436845
0.00444684
0.00498339
0.00613445
0.00775927
0.0095139
0.0110091
0.011921
0.0120657
0.0114183
0.0101421
0.00848163
0.00689721
0.00566147
0.00484723
0.00439936
0.0042118
0.00416507
0.00416846
0.00416342
0.00411904
0.0040242
0.00385816
0.00361264
0.00327388
0.002789
0.00217892
0.00170687
0.00166297
0.00206386
0.0028482
0.00406872
0.00499976
0.00213901
0.000806813
0.00146287
0.00225612
0.00289439
0.0036338
0.00488924
0.00673963
0.00880081
0.0106824
0.0120868
0.0128082
0.0127156
0.0118232
0.0102389
0.00836645
0.00660467
0.00522169
0.00431516
0.00383613
0.00361847
0.00351664
0.00344656
0.00336552
0.00325544
0.00311655
0.00296102
0.00280264
0.00263168
0.00244476
0.00222472
0.0019818
0.00183783
0.00198084
0.00247808
0.00323411
0.00399019
0.0042377
0.00204094
0.00149747
0.00207258
0.00302292
0.00472466
0.00704186
0.00937202
0.0111886
0.0125093
0.0133129
0.013533
0.0130615
0.0117987
0.00995192
0.00788844
0.00602184
0.00465615
0.00388435
0.00353999
0.00340225
0.00333794
0.00328676
0.00322382
0.00314258
0.00304784
0.00295009
0.00285885
0.00277734
0.00269964
0.00262141
0.00254235
0.00247106
0.00245111
0.00258767
0.00299919
0.00369864
0.00453214
0.0052134
0.00206094
0.00275785
0.00668067
0.00613508
0.00546998
0.00695167
0.00928578
0.0112657
0.012614
0.0133382
0.0135305
0.0132625
0.0124832
0.0111488
0.00931394
0.00726659
0.00547578
0.00432164
0.00378351
0.00359321
0.00353996
0.00352298
0.00350098
0.0034599
0.00339943
0.00332651
0.00325088
0.00318231
0.00312968
0.00310067
0.00310008
0.003125
0.00317008
0.00323534
0.00335349
0.00357812
0.00398722
0.00468388
0.00587008
0.00607376
0.00228722
0.00263889
0.00509506
0.00656008
0.00838315
0.00931107
0.0102779
0.0108485
0.0109967
0.0107991
0.0103058
0.00952627
0.00844839
0.00710847
0.00568962
0.00449725
0.00375925
0.00342057
0.0033122
0.00330741
0.00333719
0.00336585
0.00337627
0.00336332
0.00332946
0.003281
0.00322612
0.00317555
0.00314452
0.00315297
0.00322211
0.00336761
0.0035879
0.00385004
0.00411323
0.00443543
0.00490223
0.00558808
0.0067022
0.0065618
0.00238757
0.00247348
0.00212021
0.00211003
0.00217226
0.00222419
0.00216021
0.00203342
0.00188389
0.00173166
0.0015835
0.00144112
0.00130826
0.00119494
0.00111416
0.00107118
0.00105582
0.00105681
0.00106551
0.00107716
0.00108951
0.00110171
0.00111386
0.0011268
0.00114199
0.00116145
0.00118762
0.00122308
0.00126991
0.00132868
0.00139793
0.00147461
0.00155566
0.00164006
0.00172885
0.00182066
0.00191742
0.00202048
0.00213369
0.00225716
0.00218112
)
;

boundaryField
{
    floor
    {
        type            nutkWallFunction;
        Cmu             0.09;
        kappa           0.41;
        E               9.8;
        value           nonuniform List<scalar> 
36
(
0.000160548
7.63626e-05
0.000109547
0.00011041
0.000107775
0.000103354
9.74145e-05
9.14578e-05
8.59333e-05
8.09173e-05
7.63872e-05
7.23217e-05
6.86463e-05
6.52774e-05
6.21146e-05
5.90185e-05
5.57609e-05
5.30381e-05
4.75e-05
4.75e-05
6.15333e-05
7.04826e-05
7.78648e-05
9.30722e-05
0.000122711
0.000117862
0.000160548
0.000174991
0.000167245
0.000160435
7.63626e-05
0.000160435
0.000136074
0.000194691
0.000169887
0.000193913
)
;
    }
    ceiling
    {
        type            nutkWallFunction;
        Cmu             0.09;
        kappa           0.41;
        E               9.8;
        value           nonuniform List<scalar> 
43
(
0.000284297
0.000246384
0.000245284
0.000252018
0.000257625
0.000250745
0.000237023
0.000220713
0.000203962
0.000187503
0.000171521
0.000156444
0.000143441
0.000134081
0.000129064
0.000127262
0.000127376
0.000128393
0.000129758
0.000131204
0.00013263
0.000134046
0.000135547
0.000137301
0.000139536
0.000142532
0.00014658
0.000151915
0.000158599
0.000166456
0.000175131
0.000184265
0.000193724
0.000203629
0.000213815
0.000224475
0.00023575
0.000248053
0.000261366
0.000253058
0.000270492
0.000280502
0.000177623
)
;
    }
    sWall
    {
        type            nutkWallFunction;
        Cmu             0.09;
        kappa           0.41;
        E               9.8;
        value           nonuniform List<scalar> 9(0.000373876 0.000352044 0.000322922 0.000296589 0.000297546 0.000270581 0.00031443 0.000301904 0.000284398);
    }
    nWall
    {
        type            nutkWallFunction;
        Cmu             0.09;
        kappa           0.41;
        E               9.8;
        value           nonuniform List<scalar> 
14
(
0.000117869
0.000140192
0.000164099
0.000243094
0.000241268
0.000243617
0.000258086
0.000260881
0.000248503
0.000237811
0.000240263
0.000264524
0.000275215
0.000253096
)
;
    }
    sideWalls
    {
        type            empty;
    }
    glass1
    {
        type            nutkWallFunction;
        Cmu             0.09;
        kappa           0.41;
        E               9.8;
        value           nonuniform List<scalar> 9(0.000108253 0.000156885 0.000196738 0.000234351 0.000270795 0.000306147 0.000341766 0.000372089 0.000381376);
    }
    glass2
    {
        type            nutkWallFunction;
        Cmu             0.09;
        kappa           0.41;
        E               9.8;
        value           nonuniform List<scalar> 2(0.000211696 0.00024093);
    }
    sun
    {
        type            nutkWallFunction;
        Cmu             0.09;
        kappa           0.41;
        E               9.8;
        value           nonuniform List<scalar> 
14
(
0.000108212
0.000115189
0.00011478
0.000119645
0.000124082
0.000128095
0.000131817
0.000135393
0.000138981
0.000142783
0.000146396
0.000149819
0.000153183
0.000156791
)
;
    }
    Table_master
    {
        type            nutkWallFunction;
        Cmu             0.09;
        kappa           0.41;
        E               9.8;
        value           nonuniform List<scalar> 9(0.000139343 0.000121706 0.000107887 9.69279e-05 8.81038e-05 8.09077e-05 7.49846e-05 7.01273e-05 6.63131e-05);
    }
    Table_slave
    {
        type            nutkWallFunction;
        Cmu             0.09;
        kappa           0.41;
        E               9.8;
        value           nonuniform List<scalar> 9(0.000157781 0.000144106 0.000133413 0.000124437 0.000116727 0.000109753 0.000103132 9.65081e-05 8.92938e-05);
    }
    inlet
    {
        type            calculated;
        value           uniform 0.000167705;
    }
    outlet
    {
        type            calculated;
        value           nonuniform List<scalar> 2(0.00275785 0.00668067);
    }
}


// ************************************************************************* //
