/*--------------------------------*- C++ -*----------------------------------*\
  =========                 |
  \\      /  F ield         | OpenFOAM: The Open Source CFD Toolbox
   \\    /   O peration     | Website:  https://openfoam.org
    \\  /    A nd           | Version:  6
     \\/     M anipulation  |
\*---------------------------------------------------------------------------*/
FoamFile
{
    version     2.0;
    format      ascii;
    class       surfaceScalarField;
    location    "3000";
    object      phi;
}
// * * * * * * * * * * * * * * * * * * * * * * * * * * * * * * * * * * * * * //

dimensions      [1 0 -1 0 0 0 0];

internalField   nonuniform List<scalar> 
1256
(
-0.00298583
0.0030484
-0.00389072
0.000904893
-0.00463222
0.000741506
-0.00524836
0.00061614
-0.00571622
0.000467867
-0.00601633
0.000300109
-0.00612044
0.000104117
-0.00598631
-0.000134122
-0.00555811
-0.000428197
-0.00479328
-0.000764829
-0.00370584
-0.00108744
-0.00241622
-0.00128961
-0.00116574
-0.00125048
-0.000228832
-0.000936906
-0.000226494
-0.000916764
0.000920726
-0.000655329
-0.000261428
-3.08456e-06
-0.000652238
0.00058513
-0.000588208
0.00101534
-0.0004302
0.0012509
-0.000235562
0.00134903
-9.81169e-05
0.00139581
-4.67722e-05
0.00142138
-2.557e-05
0.00143224
-1.08504e-05
0.00143206
1.90478e-07
0.00142209
9.97651e-06
0.00139683
2.52697e-05
0.00133793
5.89138e-05
0.00121464
0.000123297
0.00102033
0.000194314
0.000791985
0.000228359
0.000797301
-0.00209183
0.00530872
-0.0029937
0.00180677
-0.0037625
0.00151031
-0.00436384
0.00121748
-0.00481893
0.000922967
-0.00512256
0.00060374
-0.00524937
0.000230929
-0.0051591
-0.000224388
-0.00480281
-0.000784476
-0.0041433
-0.00142434
-0.00320519
-0.00202554
-0.0021164
-0.0023784
-0.00108332
-0.00228355
-0.000239515
-0.00178071
0.000545121
-0.00101113
0.00102699
-0.000477799
0.000952538
7.91602e-05
0.000966221
0.000106944
0.000825603
0.00048011
-0.000634589
0.00081209
-0.000984213
0.00110581
-0.00088192
0.00133984
-0.00066423
0.00139146
-0.000287167
0.00139861
-0.000105265
0.00140814
-5.62944e-05
0.00141623
-3.36588e-05
0.00142088
-1.54848e-05
0.00142277
-1.6914e-06
0.00142204
1.07106e-05
0.00141649
3.0823e-05
0.00138067
9.47435e-05
0.00122942
0.000274556
0.000965144
0.000458602
0.000643806
0.000549706
0.00145447
-0.00144048
0.0070054
-0.00219881
0.00256511
-0.00284758
0.00215908
-0.00333571
0.00170562
-0.00371918
0.00130645
-0.00399709
0.000881648
-0.00413941
0.000373257
-0.00409759
-0.000266197
-0.00381534
-0.00106672
-0.00325618
-0.00198349
-0.00245251
-0.00282921
-0.00153816
-0.00329274
-0.000704244
-0.00311747
-2.6043e-05
-0.00245891
0.000506023
-0.00154319
0.000721635
-0.000693409
0.000593209
0.000207589
0.00157157
0.00145521
-0.000615133
0.00163933
-0.0008187
0.00156039
-0.000905269
0.0015767
-0.000898227
0.00175935
-0.000846877
0.00147234
0.00136724
0.0013111
0.00127761
0.00126228
0.00126075
0.00127163
0.00130261
0.00139752
0.0011642
0.000507884
0.000870259
0.000752549
0.000501178
0.000918797
0.00197556
-0.00102927
0.00836358
-0.00158771
0.00312355
-0.00192976
0.00250113
-0.00220682
0.00198269
-0.00244552
0.00154515
-0.00264448
0.00108062
-0.0027706
0.000499392
-0.0027609
-0.000275892
-0.00254069
-0.00128693
-0.00208063
-0.00244355
-0.0014336
-0.00347623
-0.00073166
-0.00399468
-0.000135987
-0.00371314
0.000337664
-0.00293256
0.000720335
-0.00192586
0.0009557
-0.000928773
0.00115066
1.26324e-05
0.00210991
0.000612326
0.0021037
1.89607e-05
0.00189013
-0.000401553
0.00180737
-0.000735939
0.0017048
-0.000802699
0.00158234
-0.000775758
0.0013737
-0.000638236
0.00167537
-0.000301819
0.00184534
-0.000170117
0.00197588
-0.000130692
0.0020812
-0.000105467
0.00214939
-6.83322e-05
0.00215606
-6.82076e-06
0.00207147
8.44415e-05
0.00185926
0.000212066
0.00146089
0.000398224
0.00123463
0.000734153
0.000870247
0.00111694
0.000336031
0.00145302
0.00233694
-0.000861722
0.0096157
-0.00118834
0.00345018
-0.00103563
0.00234843
-0.00103678
0.00198384
-0.00108397
0.00159234
-0.00116174
0.0011584
-0.00122478
0.000562439
-0.00120111
-0.000299551
-0.00100902
-0.00147901
-0.00064438
-0.00280818
-0.000194244
-0.00392636
0.00022715
-0.00441608
0.000528252
-0.00401424
0.000759083
-0.00316339
0.000955117
-0.00212189
0.00114635
-0.00112001
0.00145525
-0.000296268
0.00190491
0.000162668
0.00193966
-1.57793e-05
0.00186661
-0.000328504
0.00167939
-0.000548711
0.0015001
-0.000623408
0.00133616
-0.000611813
0.00122161
-0.000523684
0.0012841
-0.000364296
0.00137584
-0.00026186
0.00146737
-0.000222216
0.0015586
-0.000196687
0.00164012
-0.00014984
0.00169083
-5.75313e-05
0.00168416
9.11236e-05
0.00160326
0.000292975
0.00145384
0.000547649
0.0013
0.000887997
0.00112197
0.00129497
0.000751091
0.00182391
0.000939714
0.00214832
-0.00119236
0.00215459
-0.00187422
0.000703001
-0.0017979
-0.0010253
0.00404236
0.00703909
-0.000143683
0.0014505
0.00111807
9.02577e-05
0.00115092
0.000963575
0.000354553
0.000881965
0.00083759
0.000402628
0.000791042
0.00075323
0.000381643
0.000628848
0.000550541
0.000384531
0.000345087
0.000214471
0.000466783
-8.69008e-05
-0.000294894
0.000672725
-0.000717407
-0.000967536
0.000938076
-0.00142134
-0.00165219
0.00115358
-0.00200362
-0.00213824
0.00123905
-0.00226008
-0.00224146
0.00121984
-0.00399503
0.00113283
-0.00307638
0.00105596
-0.00204503
0.00104331
-0.00110736
0.0011523
-0.000405248
0.00135228
-3.73177e-05
0.00139338
-5.68755e-05
0.00129708
-0.000232195
0.00112866
-0.000380289
0.000960579
-0.000455322
0.000817657
-0.000468886
0.000727
-0.000433022
0.00072672
-0.00036401
0.000784099
-0.000319233
0.000868092
-0.000306202
0.000967554
-0.000296142
0.0010766
-0.000258882
0.00118593
-0.000166851
0.00127006
7.00163e-06
0.00131241
0.000250627
0.00133064
0.000529429
0.00136847
0.000850173
0.00147799
0.00118547
0.0016933
0.0016086
0.00204855
0.00179309
0.00236621
0.00183693
0.00185622
0.001213
0.00012624
-0.00316648
0.000471907
0.00316072
-0.00461641
0.00319857
0.00286833
-0.00234897
0.0020388
0.00146108
-0.00176077
0.00152043
0.00112231
-0.00131556
0.00115207
0.000954538
-0.00104637
0.000952802
0.000722416
-0.000923558
0.000887285
0.000381362
-0.000936183
0.000960346
-0.000111061
-0.00106954
0.0011014
-0.000749258
-0.00121449
0.00122548
-0.00143233
-0.00129297
0.00126337
-0.00197402
-0.00124861
0.00118087
-0.00219234
0.00177249
-0.00342694
-0.00109914
-0.00124144
0.00128223
-0.00258612
0.000889043
-0.00165184
0.000637694
-0.000856007
0.000552358
-0.000319909
0.000587945
-7.29005e-05
0.000594304
-6.32307e-05
0.000522411
-0.000160296
0.000402645
-0.000260519
0.000272678
-0.000325349
0.000158485
-0.000354686
8.3564e-05
-0.000358095
6.89842e-05
-0.000349423
0.000103137
-0.000353378
0.000165917
-0.000368974
0.000248965
-0.000379183
0.000354237
-0.000364147
0.000487987
-0.000300593
0.000653194
-0.000158198
0.000825312
7.85155e-05
0.000997725
0.000357024
0.00121126
0.000636649
0.001505
0.00089173
0.00193471
0.0011789
0.00248662
0.00124119
0.00327026
0.0010533
0.00347659
0.00100668
0.0036749
0.00198237
-0.00154586
-0.00376771
0.00413298
-0.00286754
0.00250227
-0.00456445
0.00462001
-0.00180393
0.00174837
-0.00444119
0.00412165
-0.00150318
0.00182272
-0.00375982
0.00341612
-0.00126364
0.00160734
-0.00311374
0.00285949
-0.000917005
0.00117125
-0.00266145
0.00251394
-0.000470764
0.000618275
-0.00241077
0.00234104
0.000107405
-3.76744e-05
-0.00229797
0.00226273
0.000777065
-0.000741823
-0.00222163
0.00215735
0.00143231
-0.00136803
-0.0020628
0.00193006
0.00190952
-0.00177678
-0.00176206
0.00156173
0.00205814
-0.00185781
0.00174054
-0.00249673
-0.00134185
-0.0013289
0.000949817
-0.00179539
0.000324114
-0.00102614
-5.29134e-05
-0.000478974
-0.000201099
-0.000171718
-0.000221034
-5.29608e-05
-0.000231799
-5.24599e-05
-0.000282989
-0.0001091
-0.000369362
-0.000174139
-0.000468841
-0.000225863
-0.000560808
-0.000262712
-0.000629063
-0.000289833
-0.000664225
-0.000314253
-0.000674293
-0.000343301
-0.000669847
-0.000373412
-0.000654012
-0.00039501
-0.000620932
-0.000397219
-0.000553359
-0.000368159
-0.000418281
-0.000293268
-0.000191202
-0.000148556
8.72491e-05
7.85811e-05
0.000396912
0.000326994
0.000744604
0.000544046
0.00116871
0.000754806
0.00161539
0.000794512
0.00195185
0.000716851
0.00103396
0.00192458
0.00500956
-0.00171857
0.00279657
0.0048594
-0.00471232
0.00455068
-0.00205125
0.00221289
-0.00442283
0.00424548
-0.00190872
0.00208606
-0.00404926
0.00385932
-0.00142835
0.00161829
-0.00368633
0.00353296
-0.000792176
0.000945549
-0.00339611
0.00326396
-8.10305e-05
0.000213187
-0.00312349
0.00296503
0.000633332
-0.000474874
-0.00278117
0.00256694
0.00122333
-0.0010091
-0.00232173
0.00204962
0.00156766
-0.00129556
-0.00175795
0.00145255
0.00160051
-0.00129511
0.000944547
-0.00141294
-0.001129
-0.000899333
3.91263e-05
-0.000889965
-0.000562554
-0.000424449
-0.000850023
-0.000191499
-0.000951448
-7.02872e-05
-0.00097999
-2.44115e-05
-0.00100274
-2.97077e-05
-0.00104944
-6.23872e-05
-0.00112081
-0.000102758
-0.00120547
-0.000141202
-0.00129228
-0.000175895
-0.00137458
-0.000207522
-0.00145187
-0.000236958
-0.00153134
-0.000263815
-0.00162149
-0.000283262
-0.00172973
-0.000286764
-0.00186399
-0.000262944
-0.00203423
-0.00019791
-0.00225282
-7.46713e-05
-0.00251907
0.000117698
-0.00283098
0.000390508
-0.00326228
0.000758301
-0.00393987
0.00122164
-0.0049393
0.00175424
-0.00638908
0.00224431
-0.0081596
0.00248738
-0.00793832
0.00170331
-0.00259718
-0.000314645
0.000306681
0.000109508
-0.00325869
0.00299059
-0.00249157
0.00275967
-0.00286025
0.0028371
-0.00219971
0.00222285
-0.0028431
0.00284319
-0.00171886
0.00171875
-0.00282579
0.00278603
-0.001049
0.00108875
-0.00272048
0.00262599
-0.00033033
0.000424814
-0.00249929
0.00233497
0.000296352
-0.000132036
-0.00212806
0.00188291
0.000757175
-0.00051203
-0.00160839
0.00131569
0.000993733
-0.000701032
-0.00101612
0.000714312
0.000988094
-0.000686289
-0.000464624
-0.000569782
-0.000380948
2.42431e-06
-0.00108928
-0.000265304
-0.00140547
-0.000108246
-0.00155715
-3.9812e-05
-0.00161905
-8.37833e-06
-0.00164546
1.99961e-06
-0.00167152
-3.63268e-06
-0.00171303
-2.08723e-05
-0.00177191
-4.38664e-05
-0.00184406
-6.90477e-05
-0.00192631
-9.3638e-05
-0.00201859
-0.00011523
-0.00212331
-0.000132231
-0.00224395
-0.000143167
-0.00238208
-0.000145119
-0.00253567
-0.000133164
-0.00269812
-0.000100492
-0.00285585
-4.01719e-05
-0.00299139
6.08828e-05
-0.00310094
0.000227254
-0.00319074
0.000480318
-0.00326989
0.000837463
-0.00334328
0.00129503
-0.00337706
0.00178804
-0.00325972
0.00212698
-0.00246394
0.00169161
-0.000469446
-0.000291176
-0.00298081
0.0042797
-0.00369618
-0.00038367
-0.000203105
-0.00172895
-0.00387693
0.00343552
-0.0029294
-0.000820761
0.00175205
-0.0010122
-0.00238935
0.0016495
0.000495802
-0.000109692
-0.00204288
0.00165676
-0.00019806
0.000442839
-0.00159922
0.00135444
-0.000629473
0.000759969
-0.00105135
0.000920843
-0.000835733
0.000858802
-0.00047154
0.000448466
-0.000831846
0.000759497
7.7673e-06
6.45806e-05
-0.000643377
0.000481157
0.000304003
-0.000141781
-0.000280151
5.36699e-05
0.000441403
-0.000214918
0.000171356
-0.000362461
0.00044328
-0.000252172
-0.00171947
-9.63909e-05
0.000534395
0.00071169
-0.0019828
-1.96631e-06
-0.00210916
1.81291e-05
-0.0021625
1.35295e-05
-0.00217973
8.8649e-06
-0.00218177
4.04188e-06
-0.00218278
-2.60485e-06
-0.00219053
-1.31202e-05
-0.00220867
-2.57172e-05
-0.00223863
-3.90786e-05
-0.00228069
-5.15659e-05
-0.00233452
-6.13895e-05
-0.00239935
-6.73991e-05
-0.00247375
-6.87519e-05
-0.00255488
-6.39871e-05
-0.00263743
-5.05995e-05
-0.00271329
-2.46299e-05
-0.00277135
1.79013e-05
-0.00279074
8.02793e-05
-0.00274286
0.000179385
-0.00259589
0.00033336
-0.002318
0.000559576
-0.00189553
0.000872569
-0.0013117
0.00120422
-0.000298931
0.00111421
0.00167541
-0.000282722
0.00349462
-0.00211037
0.00060668
0.0022791
-0.00197362
0.00253822
-0.00376796
0.00246524
-0.0012355
0.00459683
-0.00488209
0.000621282
-0.000336017
0.0046185
-0.00408271
-0.000940432
0.000404644
0.00349503
-0.00292382
-0.00114279
0.000571577
0.00239362
-0.00192011
-0.000979184
0.000505677
0.00151587
-0.00119009
-0.000678302
0.000352517
0.000947874
-0.000789858
-0.000345258
0.000187247
0.000710864
-0.000698496
-9.06191e-05
7.82583e-05
0.00073464
-0.000797329
1.83741e-05
4.43214e-05
0.000870302
-0.000941941
4.59171e-05
2.57256e-05
0.00101453
-0.00108253
0.000154628
-8.66276e-05
-0.00253312
0.00101991
0.00142863
-0.0025234
-0.00249363
-0.00246841
-0.00244779
-0.0024319
-0.00242255
-0.00242362
-0.0024372
-0.00246412
-0.00250355
-0.00255288
-0.00260835
-0.00266535
-0.00271781
-0.00275714
-0.0027708
-0.00274226
-0.00265171
-0.00246247
-0.00211966
-0.00155109
-0.000669993
0.000542242
0.00166408
0.00138937
-0.000713757
-0.0043173
0.00374325
0.00196768
0.00124161
0.00104245
0.000858938
0.000579787
0.000165576
-0.000404089
-0.00108063
-0.00171967
-0.00212349
-0.00215974
-0.00286972
-0.00251154
0.00161356
-0.00227755
0.00184608
-0.0016031
0.00178192
-0.0014007
0.00176254
-0.00110317
0.00140556
-0.000710686
0.000908731
-0.000200176
0.000303349
0.000434672
-0.000391595
0.00111384
-0.00107274
0.00170251
-0.00160797
0.00202972
-0.00186172
0.0019858
-0.00176592
-0.00527509
-0.00167543
0.00223819
-0.00205591
0.00218375
-0.00169365
0.00188987
-0.00112431
0.00129729
-0.000442014
0.000578855
0.000282913
-0.000142453
0.000952251
-0.000768397
0.00143203
-0.00118683
0.0016239
-0.00133223
0.00150511
-0.00118156
-0.00323625
-0.00275555
0.00273311
-0.00234135
0.00247169
-0.00199196
0.00198595
-0.00139879
0.00141618
-0.000686625
0.000752163
3.6806e-07
0.000126315
0.000552034
-0.000345137
0.000905431
-0.000630914
0.00102062
-0.000721046
0.000912145
-0.00057878
-0.00143282
-0.00390142
-0.00264767
-0.0021564
0.000979044
-0.00225096
0.00173456
-0.00183302
0.00152526
-0.00133636
0.00114971
-0.000757753
0.000681982
-0.000209752
0.000236704
0.000177207
-6.10851e-05
0.00039055
-0.00018954
0.000459687
-0.000234657
0.000369857
-0.000197921
0.00119447
0.00278084
-0.00143709
0.00165917
-0.000830299
-0.000374534
0.000110941
-0.00112444
0.000536769
-0.00108481
0.000554613
-0.000839537
0.000435301
-0.00050884
0.00026663
-0.000201716
0.000122729
-1.79226e-05
5.40725e-05
3.38653e-05
3.91124e-05
7.63432e-05
-3.74608e-06
0.000281688
-0.000344307
-0.00439242
0.00439322
-0.00408334
0.0037405
-0.00337901
0.00299815
-0.0026399
0.0023308
-0.00208656
0.00189198
-0.00176108
0.00167168
-0.00163709
0.00163343
-0.00166402
0.00169183
-0.00172504
0.00172502
-0.00170785
0.00164335
-0.00154958
0.00141538
-5.06749e-05
0.00254184
0.00126576
-0.00437846
0.00486107
-0.00496756
0.00473902
-0.00444565
0.00414428
-0.00385619
0.00359909
-0.00338351
0.00320961
-0.00307095
0.00295225
-0.00284357
0.00273508
-0.00261458
0.00246989
-0.00229395
0.00208484
-0.00184701
0.00158971
-0.00434204
0.00406336
-0.00390575
0.00379209
-0.00369
0.00358943
-0.00348793
0.00338447
-0.00327669
0.00315954
-0.00301745
0.00283892
-0.00262255
0.00237061
-0.00208921
0.00178738
-0.00147577
0.00116875
-0.000686223
0.00105653
-0.00127726
0.00145722
-0.00161014
0.00172966
-0.00180947
0.00184687
-0.00184127
0.00179453
-0.00171109
0.00158681
-0.00141888
0.00121085
-0.000970484
0.000710857
-0.000449501
0.000206495
0.00150424
-0.00291593
0.00390443
-0.00410391
0.0034994
-0.00279033
0.00218022
-0.00166625
0.00122581
-0.000850556
0.000540383
-0.000297844
0.000124703
-2.1495e-05
-1.34947e-05
-1.25385e-05
9.15406e-05
-0.000214943
0.000370612
-0.000539608
0.000697918
-0.000795459
0.00337045
-0.00456707
0.00536005
-0.00566
0.00551411
-0.00507593
0.00450757
-0.00390653
0.00332456
-0.00279351
0.00233476
-0.00196067
0.00167434
-0.00146924
0.00133042
-0.00123767
0.00117042
-0.00111395
0.00106335
-0.00102647
0.00101916
-0.0010949
)
;

boundaryField
{
    floor
    {
        type            calculated;
        value           nonuniform List<scalar> 
36
(
0
0
0
0
0
0
0
0
0
0
0
0
0
0
0
0
0
0
0
-5.30637e-06
-1.33537e-05
-1.99031e-05
-2.53357e-05
-2.25059e-05
-2.11329e-05
-1.99153e-05
-2.33505e-06
-4.06318e-06
-4.70934e-06
-5.44116e-06
-3.95529e-06
-8.23859e-06
-1.18135e-05
-1.21405e-05
-1.44688e-05
-1.27519e-05
)
;
    }
    ceiling
    {
        type            calculated;
        value           nonuniform List<scalar> 
58
(
-4.02658e-05
-3.731e-05
-3.49386e-05
-3.15817e-05
-2.7358e-05
-2.34436e-05
-1.96969e-05
-1.60791e-05
-1.31657e-05
-1.14773e-05
-1.10544e-05
-1.05742e-05
-1.18023e-05
-1.16724e-05
-1.16402e-05
-1.16777e-05
-1.17443e-05
-1.18373e-05
-1.19463e-05
-1.20487e-05
-1.21241e-05
-1.2154e-05
-1.21297e-05
-1.20505e-05
-1.19194e-05
-1.1741e-05
-1.15199e-05
-1.12601e-05
-1.09635e-05
-1.06281e-05
-1.02551e-05
-9.85519e-06
-9.43123e-06
-8.98639e-06
-8.52218e-06
-8.00786e-06
-7.6139e-06
-8.00758e-06
-7.23806e-06
-4.80151e-06
1.70247e-05
9.46391e-06
-0.000133003
-3.99759e-05
-3.88747e-05
-3.6071e-05
-3.3538e-05
-2.94543e-05
-2.53606e-05
-2.15656e-05
-1.78469e-05
-1.44912e-05
-1.21522e-05
-1.11508e-05
-1.08913e-05
2.67014e-05
1.11141e-05
-0.000101545
)
;
    }
    sWall
    {
        type            calculated;
        value           nonuniform List<scalar> 4(-0.000188786 -0.000222601 -0.000199845 -0.0002655);
    }
    nWall
    {
        type            calculated;
        value           nonuniform List<scalar> 6(-5.63873e-05 -6.79131e-05 -7.20589e-05 -8.58086e-05 -9.28662e-05 -0.000102267);
    }
    sideWalls
    {
        type            empty;
        value           nonuniform 0();
    }
    glass1
    {
        type            calculated;
        value           nonuniform List<scalar> 10(-6.25652e-05 -0.000168482 -0.000256195 -0.000328908 -0.000390394 -0.000440443 -0.00044469 -0.000415438 -0.000466137 -0.000463215);
    }
    glass2
    {
        type            calculated;
        value           nonuniform List<scalar> 2(-0.000300691 -0.000331569);
    }
    sun
    {
        type            calculated;
        value           uniform 0;
    }
    Table_master
    {
        type            calculated;
        value           nonuniform List<scalar> 9(-1.53858e-07 -1.53998e-07 -1.54046e-07 -1.54075e-07 -1.54095e-07 -1.54108e-07 -1.54111e-07 -1.54107e-07 -1.54079e-07);
    }
    Table_slave
    {
        type            calculated;
        value           nonuniform List<scalar> 9(1.53761e-07 1.53749e-07 1.53703e-07 1.53665e-07 1.5364e-07 1.53639e-07 1.53644e-07 1.5368e-07 1.53762e-07);
    }
    inlet
    {
        type            calculated;
        value           nonuniform List<scalar> 2(-0.0057279 -0.0059374);
    }
    outlet
    {
        type            calculated;
        value           nonuniform List<scalar> 4(0.00513113 0.00435424 0.00303567 0.00580899);
    }
}


// ************************************************************************* //
