/*--------------------------------*- C++ -*----------------------------------*\
  =========                 |
  \\      /  F ield         | OpenFOAM: The Open Source CFD Toolbox
   \\    /   O peration     | Website:  https://openfoam.org
    \\  /    A nd           | Version:  6
     \\/     M anipulation  |
\*---------------------------------------------------------------------------*/
FoamFile
{
    version     2.0;
    format      ascii;
    class       volScalarField;
    location    "3000";
    object      T;
}
// * * * * * * * * * * * * * * * * * * * * * * * * * * * * * * * * * * * * * //

dimensions      [0 0 0 1 0 0 0];

internalField   nonuniform List<scalar> 
778
(
302.566
302.247
302.231
302.225
302.221
302.216
302.212
302.207
302.203
302.198
302.192
302.184
302.175
302.165
302.155
302.224
302.094
302.087
302.086
302.088
302.091
302.096
302.1
302.105
302.11
302.115
302.12
302.125
302.13
302.136
302.142
302.151
302.182
302.779
302.277
302.245
302.244
302.245
302.246
302.245
302.243
302.24
302.235
302.226
302.212
302.192
302.167
302.138
302.119
302.106
302.102
302.082
302.064
302.056
302.053
302.053
302.054
302.056
302.058
302.059
302.061
302.063
302.066
302.069
302.073
302.08
302.09
302.106
302.158
302.995
302.325
302.272
302.279
302.289
302.299
302.308
302.313
302.316
302.314
302.305
302.285
302.254
302.213
302.168
302.127
302.096
302.075
302.049
302.041
302.039
302.039
302.04
302.041
302.043
302.044
302.045
302.046
302.047
302.049
302.05
302.053
302.058
302.067
302.085
302.146
303.205
302.385
302.303
302.315
302.337
302.359
302.379
302.396
302.407
302.411
302.404
302.379
302.335
302.275
302.208
302.147
302.098
302.063
302.048
302.037
302.033
302.032
302.033
302.035
302.035
302.036
302.036
302.036
302.037
302.037
302.037
302.037
302.037
302.043
302.053
302.072
302.137
303.405
302.46
302.336
302.349
302.381
302.415
302.448
302.479
302.504
302.518
302.514
302.485
302.426
302.341
302.248
302.164
302.099
302.057
302.036
302.028
302.027
302.029
302.032
302.034
302.036
302.038
302.038
302.039
302.039
302.039
302.039
302.039
302.038
302.04
302.046
302.061
302.114
302.126
302.139
302.235
303.594
302.545
302.373
302.377
302.416
302.459
302.504
302.548
302.587
302.613
302.617
302.587
302.512
302.4
302.279
302.174
302.095
302.05
302.028
302.021
302.023
302.028
302.033
302.037
302.04
302.042
302.043
302.043
302.043
302.043
302.042
302.041
302.04
302.04
302.042
302.053
302.086
302.098
302.113
302.246
303.757
302.64
302.421
302.401
302.44
302.486
302.535
302.586
302.635
302.676
302.693
302.664
302.575
302.436
302.291
302.171
302.086
302.037
302.017
302.014
302.02
302.029
302.037
302.043
302.046
302.048
302.049
302.049
302.048
302.047
302.046
302.044
302.042
302.04
302.041
302.047
302.067
302.08
302.097
302.228
303.911
302.783
302.517
302.436
302.457
302.499
302.545
302.592
302.643
302.701
302.732
302.7
302.596
302.444
302.284
302.152
302.064
302.017
302.003
302.007
302.019
302.033
302.044
302.051
302.055
302.057
302.057
302.056
302.054
302.052
302.049
302.046
302.044
302.042
302.041
302.044
302.056
302.068
302.108
302.404
304.118
303.233
302.844
302.589
302.504
302.516
302.552
302.593
302.651
302.72
302.754
302.712
302.589
302.417
302.245
302.11
302.027
301.991
301.988
302.003
302.024
302.043
302.056
302.063
302.066
302.066
302.064
302.062
302.058
302.055
302.052
302.048
302.045
302.042
302.041
302.042
302.051
302.079
302.161
302.554
304.104
303.536
303.163
302.864
302.687
302.618
302.609
302.634
302.704
302.773
302.786
302.707
302.546
302.349
302.17
302.044
301.978
301.962
301.977
302.006
302.036
302.058
302.071
302.077
302.077
302.074
302.07
302.066
302.061
302.057
302.053
302.049
302.046
302.043
302.041
302.042
302.063
302.243
302.369
302.562
304.107
303.671
303.356
303.096
302.916
302.816
302.779
302.787
302.836
302.866
302.816
302.666
302.45
302.231
302.059
301.959
301.925
301.939
301.978
302.021
302.057
302.079
302.089
302.089
302.085
302.079
302.073
302.067
302.062
302.057
302.053
302.049
302.046
302.043
302.042
302.045
302.085
302.278
302.423
302.578
304.139
303.758
303.494
303.283
303.128
303.034
302.991
302.991
302.995
302.939
302.782
302.538
302.274
302.055
301.919
301.868
301.882
301.934
301.996
302.051
302.087
302.104
302.105
302.099
302.09
302.081
302.074
302.068
302.062
302.057
302.053
302.049
302.046
302.044
302.044
302.051
302.09
302.256
302.403
302.578
304.205
303.877
303.634
303.451
303.319
303.233
303.186
303.159
303.071
302.874
302.58
302.259
301.993
301.828
301.77
301.796
301.87
301.96
302.04
302.096
302.124
302.127
302.118
302.106
302.094
302.084
302.076
302.069
302.063
302.058
302.054
302.051
302.048
302.048
302.053
302.072
302.121
302.249
302.375
302.535
304.14
303.889
303.681
303.54
303.424
303.334
303.256
303.126
302.852
302.471
302.085
301.788
301.628
301.598
301.663
301.781
301.911
302.027
302.108
302.151
302.157
302.148
302.132
302.117
302.103
302.091
302.082
302.074
302.069
302.064
302.06
302.057
302.057
302.064
302.085
302.129
302.192
302.288
302.387
302.536
304.281
304.088
303.618
303.297
303.093
302.927
302.736
302.365
301.894
301.498
301.27
301.219
301.306
301.473
301.67
301.863
302.019
302.133
302.184
302.197
302.189
302.173
302.155
302.138
302.123
302.11
302.1
302.092
302.086
302.081
302.078
302.077
302.082
302.1
302.143
302.214
302.301
302.39
302.467
302.583
294.642
296.441
298.133
299.035
299.382
299.574
299.826
300.155
300.529
300.908
301.268
301.582
301.839
302.048
302.169
302.229
302.248
302.244
302.23
302.213
302.195
302.179
302.165
302.154
302.145
302.139
302.133
302.13
302.127
302.126
302.131
302.15
302.195
302.274
302.376
302.478
302.553
302.631
294.923
295.744
296.637
297.499
298.276
299.002
299.687
300.3
300.824
301.263
301.638
301.916
302.104
302.225
302.286
302.309
302.309
302.3
302.286
302.271
302.257
302.245
302.237
302.232
302.231
302.231
302.23
302.226
302.221
302.215
302.212
302.217
302.242
302.297
302.379
302.469
302.542
302.625
299.772
298.696
297.32
296.753
297.504
298.508
299.411
300.145
300.718
301.159
301.517
301.808
302.035
302.196
302.298
302.353
302.375
302.379
302.373
302.363
302.351
302.34
302.331
302.326
302.326
302.329
302.336
302.344
302.351
302.354
302.35
302.339
302.326
302.316
302.317
302.336
302.38
302.445
302.503
302.575
300.128
299.997
299.41
298.885
299.283
300
300.659
301.177
301.563
301.846
302.053
302.206
302.314
302.383
302.422
302.439
302.443
302.44
302.432
302.423
302.414
302.407
302.403
302.404
302.41
302.42
302.433
302.448
302.462
302.473
302.477
302.472
302.457
302.44
302.426
302.423
302.433
302.458
302.495
302.57
300.845
300.838
300.891
300.976
301.127
301.466
301.787
302.03
302.202
302.32
302.401
302.455
302.489
302.509
302.518
302.52
302.518
302.512
302.506
302.5
302.495
302.493
302.494
302.5
302.509
302.522
302.537
302.552
302.566
302.576
302.579
302.577
302.569
302.558
302.548
302.544
302.548
302.558
302.57
302.608
)
;

boundaryField
{
    floor
    {
        type            wallHeatTransfer;
        Tinf            uniform 305.2;
        alphaWall       uniform 0.36;
        value           nonuniform List<scalar> 
36
(
302.544
302.868
302.622
302.613
302.622
302.639
302.665
302.694
302.723
302.751
302.779
302.806
302.833
302.858
302.884
302.91
302.94
302.969
303.04
303.04
302.909
302.841
302.792
302.711
302.618
302.713
302.544
302.487
302.489
302.498
302.868
302.498
302.535
302.418
302.434
302.394
)
;
    }
    ceiling
    {
        type            wallHeatTransfer;
        Tinf            uniform 303.2;
        alphaWall       uniform 0.36;
        value           nonuniform List<scalar> 
43
(
301.033
301.05
301.099
301.172
301.306
301.62
301.918
302.146
302.307
302.419
302.498
302.552
302.588
302.61
302.621
302.624
302.622
302.617
302.61
302.604
302.599
302.597
302.597
302.601
302.607
302.617
302.628
302.639
302.648
302.653
302.654
302.649
302.639
302.626
302.614
302.608
302.609
302.616
302.624
302.66
304.19
304.016
295.883
)
;
    }
    sWall
    {
        type            wallHeatTransfer;
        Tinf            uniform 315.2;
        alphaWall       uniform 0.54;
        value           nonuniform List<scalar> 9(305.124 305.182 305.293 305.437 305.375 305.601 301.399 301.775 302.498);
    }
    nWall
    {
        type            wallHeatTransfer;
        Tinf            uniform 308.2;
        alphaWall       uniform 0.54;
        value           nonuniform List<scalar> 
14
(
303.574
303.432
303.29
303.301
303.32
303.313
303.242
303.237
303.307
303.375
303.363
303.264
303.237
303.318
)
;
    }
    sideWalls
    {
        type            empty;
    }
    glass1
    {
        type            wallHeatTransfer;
        Tinf            uniform 315.2;
        alphaWall       uniform 4.3;
        value           nonuniform List<scalar> 9(311.626 310.812 310.3 309.912 309.605 309.359 309.142 308.996 309.046);
    }
    glass2
    {
        type            wallHeatTransfer;
        Tinf            uniform 308.2;
        alphaWall       uniform 4.3;
        value           nonuniform List<scalar> 2(305.76 305.657);
    }
    sun
    {
        type            wallHeatTransfer;
        Tinf            uniform 305.2;
        alphaWall       uniform 0.36;
        value           nonuniform List<scalar> 
14
(
303.018
302.731
302.719
302.7
302.684
302.669
302.656
302.643
302.631
302.618
302.605
302.591
302.576
302.56
)
;
    }
    Table_master
    {
        type            zeroGradient;
    }
    Table_slave
    {
        type            zeroGradient;
    }
    inlet
    {
        type            fixedValue;
        value           uniform 293.15;
    }
    outlet
    {
        type            zeroGradient;
    }
}


// ************************************************************************* //
