/*--------------------------------*- C++ -*----------------------------------*\
  =========                 |
  \\      /  F ield         | OpenFOAM: The Open Source CFD Toolbox
   \\    /   O peration     | Website:  https://openfoam.org
    \\  /    A nd           | Version:  6
     \\/     M anipulation  |
\*---------------------------------------------------------------------------*/
FoamFile
{
    version     2.0;
    format      ascii;
    class       volVectorField;
    location    "3000";
    object      U;
}
// * * * * * * * * * * * * * * * * * * * * * * * * * * * * * * * * * * * * * //

dimensions      [0 1 -1 0 0 0 0];

internalField   nonuniform List<vector> 
778
(
(0.0709621 0.0786009 0)
(-0.154127 0.0142629 0)
(0.267601 0.167464 0)
(-0.162323 0.01453 0)
(-0.164912 0.0470701 0)
(0.443318 0.255315 0)
(-0.191659 0.0122143 0)
(-0.143884 0.0481317 0)
(-0.201147 0.0840627 0)
(0.596003 0.328723 0)
(-0.21764 0.00863372 0)
(-0.178705 0.0443079 0)
(-0.11472 0.0823357 0)
(-0.250071 0.121869 0)
(0.726755 0.387954 0)
(-0.239485 0.00454383 0)
(-0.20627 0.0388996 0)
(-0.153255 0.0712833 0)
(-0.0806149 0.114603 0)
(-0.300664 0.157695 0)
(0.834298 0.437366 0)
(-0.256525 6.06377e-05 0)
(-0.229283 0.0327878 0)
(-0.177407 0.0601817 0)
(-0.125171 0.0957048 0)
(-0.0448318 0.139753 0)
(-0.346844 0.191907 0)
(0.905407 0.481051 0)
(-0.268283 -0.0049074 0)
(-0.247616 0.0260381 0)
(-0.197174 0.0485381 0)
(-0.143376 0.0802957 0)
(-0.0984516 0.113444 0)
(-0.0118341 0.15584 0)
(-0.385729 0.222764 0)
(0.949373 0.52415 0)
(-0.274277 -0.0105528 0)
(-0.261132 0.0184454 0)
(-0.212603 0.0360961 0)
(-0.158371 0.0650272 0)
(-0.109523 0.0945028 0)
(-0.0745385 0.123987 0)
(0.0111202 0.160101 0)
(-0.40141 0.235836 0)
(1.03066 0.516064 0)
(-0.27357 -0.0171671 0)
(-0.269567 0.00967095 0)
(-0.223841 0.0225942 0)
(-0.169978 0.0492142 0)
(-0.118858 0.0761353 0)
(-0.0782739 0.102491 0)
(-0.0533352 0.127602 0)
(0.0236523 0.135464 0)
(-0.1542 0.298847 0)
(0.796882 0.406664 0)
(-0.263757 -0.0255485 0)
(-0.27222 -0.00072416 0)
(-0.230822 0.00780937 0)
(-0.178426 0.0323521 0)
(-0.125817 0.0574146 0)
(-0.081818 0.0819058 0)
(-0.0505049 0.104554 0)
(-0.0284276 0.122323 0)
(0.0419991 0.160955 0)
(-0.00637812 0.324304 0)
(0.630855 0.230264 0)
(-0.240021 -0.036879 0)
(-0.268057 -0.0129177 0)
(-0.233117 -0.00832154 0)
(-0.18367 0.0139208 0)
(-0.1306 0.0376985 0)
(-0.0838492 0.0612469 0)
(-0.049118 0.0825173 0)
(-0.0244603 0.10128 0)
(0.0387707 0.125209 0)
(0.0932405 0.219844 0)
(0.00289912 0.303651 0)
(0.578575 0.123274 0)
(-0.199323 -0.0539616 0)
(-0.256112 -0.0275078 0)
(-0.229803 -0.0260207 0)
(-0.185276 -0.00649414 0)
(-0.133229 0.0163001 0)
(-0.0845441 0.039838 0)
(-0.0468443 0.0606463 0)
(-0.0202667 0.0788823 0)
(0.013479 0.0969026 0)
(0.110038 0.156978 0)
(0.114614 0.24373 0)
(-0.0178985 0.263931 0)
(0.632173 0.0541454 0)
(-0.157345 -0.0818575 0)
(-0.237733 -0.0469179 0)
(-0.221 -0.046186 0)
(-0.182493 -0.0291128 0)
(-0.1333 -0.00734746 0)
(-0.0839776 0.0168429 0)
(-0.0439893 0.0383224 0)
(-0.0149181 0.0565765 0)
(0.0103946 0.0712036 0)
(0.0766045 0.110006 0)
(0.149953 0.179732 0)
(0.117094 0.233004 0)
(0.0139523 0.201003 0)
(0.479339 0.0730423 0)
(-0.169282 -0.12009 0)
(-0.223363 -0.0729651 0)
(-0.2081 -0.0699226 0)
(-0.17573 -0.0543206 0)
(-0.130529 -0.0333925 0)
(-0.0815245 -0.00870735 0)
(-0.0406217 0.0146998 0)
(-0.00948001 0.033916 0)
(0.0163071 0.0479803 0)
(0.059937 0.0721261 0)
(0.131781 0.126584 0)
(0.168894 0.178929 0)
(0.118517 0.200134 0)
(-0.131196 0.140829 0)
(0.731495 0.13089 0)
(-0.22205 -0.0898906 0)
(-0.194685 -0.09557 0)
(-0.165551 -0.0820925 0)
(-0.124884 -0.0621813 0)
(-0.0779532 -0.0370059 0)
(-0.0347111 -0.011804 0)
(-0.004231 0.00949401 0)
(0.0231272 0.0246683 0)
(0.0589343 0.0418708 0)
(0.11851 0.082079 0)
(0.16999 0.12975 0)
(0.180627 0.161016 0)
(0.0976161 0.137415 0)
(0.076891 0.11359 0)
(-0.190835 -0.0504384 0)
(-0.178152 -0.111288 0)
(-0.152561 -0.109059 0)
(-0.116138 -0.0934372 0)
(-0.0721492 -0.0684039 0)
(-0.0292147 -0.041467 0)
(0.00626386 -0.0201737 0)
(0.0325927 -0.00168892 0)
(0.0632626 0.0143966 0)
(0.115679 0.044592 0)
(0.167241 0.0857261 0)
(0.196831 0.121408 0)
(0.17814 0.120565 0)
(0.147662 0.0992914 0)
(-0.120917 -0.0495082 0)
(-0.145366 -0.103018 0)
(-0.134401 -0.127572 0)
(-0.103755 -0.123743 0)
(-0.0636954 -0.102806 0)
(-0.0216519 -0.0748147 0)
(0.0145443 -0.0505039 0)
(0.0441507 -0.0307896 0)
(0.0740805 -0.0140025 0)
(0.117839 0.0108902 0)
(0.168157 0.0458928 0)
(0.203314 0.0820368 0)
(0.210132 0.099298 0)
(0.225557 0.0828469 0)
(0.211494 0.0780747 0)
(-0.111297 -0.0609729 0)
(-0.100501 -0.111735 0)
(-0.108071 -0.135345 0)
(-0.0867191 -0.147242 0)
(-0.0520246 -0.136963 0)
(-0.0120597 -0.111771 0)
(0.0246744 -0.0849423 0)
(0.0551979 -0.0617308 0)
(0.0853283 -0.0432071 0)
(0.124454 -0.0212259 0)
(0.170975 0.00914459 0)
(0.208661 0.0432785 0)
(0.224802 0.069207 0)
(0.250216 0.073616 0)
(0.242545 0.0913863 0)
(0.360611 0.204237 0)
(-0.0941848 -0.130752 0)
(-0.0801266 -0.143757 0)
(-0.0652388 -0.161588 0)
(-0.0372096 -0.164888 0)
(-0.000603451 -0.148999 0)
(0.0359247 -0.122803 0)
(0.0672973 -0.0964616 0)
(0.0970964 -0.0745937 0)
(0.132571 -0.0529253 0)
(0.175179 -0.0257553 0)
(0.213503 0.00616171 0)
(0.234942 0.0343556 0)
(0.256737 0.0525577 0)
(0.263826 0.0672481 0)
(0.180791 0.175301 0)
(-0.241954 -0.0133875 0)
(-0.0642488 -0.140312 0)
(-0.0430995 -0.168733 0)
(-0.0203295 -0.182292 0)
(0.0117904 -0.1794 0)
(0.0470814 -0.159688 0)
(0.0795922 -0.133917 0)
(0.109671 -0.109253 0)
(0.142469 -0.0859203 0)
(0.180842 -0.0599812 0)
(0.21834 -0.0300928 0)
(0.244154 -0.00166525 0)
(0.264423 0.0230983 0)
(0.263611 0.0388985 0)
(0.148746 0.116991 0)
(-0.110279 0.0923887 0)
(-0.369432 -0.542001 0)
(-0.349468 -0.104989 0)
(-0.0220296 -0.0651605 0)
(-0.0230413 -0.162478 0)
(-0.0031351 -0.188223 0)
(0.0240616 -0.197438 0)
(0.0569816 -0.189367 0)
(0.0903412 -0.169449 0)
(0.121576 -0.145275 0)
(0.153252 -0.120602 0)
(0.188307 -0.0945616 0)
(0.223876 -0.0658286 0)
(0.252465 -0.0375153 0)
(0.274568 -0.00999055 0)
(0.267538 0.0117444 0)
(0.144046 0.0647598 0)
(-0.0663977 0.06838 0)
(-0.275368 0.0469523 0)
(0.434888 -0.399506 0)
(-0.388741 -0.291836 0)
(-0.345479 -0.256682 0)
(0.0403064 -0.101476 0)
(0.00938442 -0.128601 0)
(0.0134116 -0.179495 0)
(0.0356862 -0.2023 0)
(0.0651378 -0.206958 0)
(0.0980394 -0.196996 0)
(0.130476 -0.177717 0)
(0.162375 -0.154275 0)
(0.195606 -0.128494 0)
(0.229236 -0.100345 0)
(0.258475 -0.0716264 0)
(0.280603 -0.0420717 0)
(0.269092 -0.0136297 0)
(0.135553 0.0236533 0)
(-0.048622 0.0368619 0)
(-0.224956 0.0846638 0)
(-0.343346 -0.176549 0)
(0.147808 -0.174835 0)
(-0.256297 -0.317751 0)
(0.0772956 -0.0905972 0)
(0.0535125 -0.0845628 0)
(0.0414024 -0.122316 0)
(0.0335821 -0.157235 0)
(0.0464169 -0.193849 0)
(0.0714162 -0.210747 0)
(0.102055 -0.212067 0)
(0.134533 -0.201071 0)
(0.166873 -0.182086 0)
(0.199291 -0.15829 0)
(0.231206 -0.13104 0)
(0.259185 -0.101642 0)
(0.278176 -0.0696242 0)
(0.259184 -0.0355295 0)
(0.120747 -0.00561827 0)
(-0.0467461 0.0182928 0)
(-0.19746 0.0807012 0)
(-0.328407 -0.134766 0)
(1.13892 0.00250024 0)
(0.0962154 -0.0545858 0)
(0.0502431 -0.0649639 0)
(0.0697897 -0.0634757 0)
(0.0591579 -0.103127 0)
(0.0533475 -0.139541 0)
(0.0577908 -0.174687 0)
(0.0759604 -0.201506 0)
(0.102564 -0.213324 0)
(0.133151 -0.211768 0)
(0.164858 -0.199589 0)
(0.196305 -0.179757 0)
(0.226248 -0.154364 0)
(0.251309 -0.124722 0)
(0.264342 -0.0903362 0)
(0.23646 -0.0520773 0)
(0.102087 -0.0202779 0)
(-0.0521972 0.0060471 0)
(-0.18308 0.0699355 0)
(-0.301172 -0.122395 0)
(0.0782882 -0.0148132 0)
(0.0521515 -0.0400696 0)
(0.0668585 -0.0458348 0)
(0.086261 -0.0438794 0)
(0.0739702 -0.0803173 0)
(0.0673712 -0.11754 0)
(0.0684891 -0.152387 0)
(0.0794994 -0.182211 0)
(0.10023 -0.202076 0)
(0.126899 -0.209189 0)
(0.156115 -0.204548 0)
(0.1854 -0.190095 0)
(0.212426 -0.167689 0)
(0.233182 -0.138691 0)
(0.238879 -0.103088 0)
(0.202882 -0.0622201 0)
(0.0785928 -0.0254657 0)
(-0.0599629 -0.00265639 0)
(-0.177825 0.060847 0)
(-0.2767 -0.124386 0)
(0.0371261 -0.018083 0)
(0.0677381 -0.0289904 0)
(0.0837149 -0.0301269 0)
(0.100129 -0.0248828 0)
(0.08779 -0.0584511 0)
(0.0784811 -0.0932506 0)
(0.0762691 -0.127315 0)
(0.0819091 -0.157699 0)
(0.0959757 -0.181421 0)
(0.11699 -0.195096 0)
(0.141801 -0.197325 0)
(0.16726 -0.188667 0)
(0.190115 -0.170267 0)
(0.205499 -0.143085 0)
(0.203933 -0.107719 0)
(0.162601 -0.0663565 0)
(0.0523471 -0.0270661 0)
(-0.0701026 -0.00850167 0)
(-0.178067 0.0564345 0)
(-0.258971 -0.131903 0)
(0.0595727 -0.0153827 0)
(0.085427 -0.0191101 0)
(0.093103 -0.0165461 0)
(0.115176 -0.0162855 0)
(0.10011 -0.038976 0)
(0.0881153 -0.0697366 0)
(0.0819 -0.101233 0)
(0.0826036 -0.130623 0)
(0.0904099 -0.155355 0)
(0.104826 -0.172655 0)
(0.123702 -0.180122 0)
(0.143838 -0.176831 0)
(0.16133 -0.162895 0)
(0.17083 -0.138911 0)
(0.162853 -0.105371 0)
(0.119154 -0.0652197 0)
(0.0238324 -0.0270503 0)
(-0.0831968 -0.0117363 0)
(-0.180864 0.0569667 0)
(-0.247469 -0.141111 0)
(0.0823045 -0.0113446 0)
(0.0951879 -0.0102048 0)
(0.0916901 -0.0129444 0)
(0.129032 -0.0109688 0)
(0.111559 -0.0239093 0)
(0.0964851 -0.0487362 0)
(0.0862892 -0.0763643 0)
(0.0820084 -0.103261 0)
(0.0838844 -0.127109 0)
(0.0915791 -0.145507 0)
(0.103713 -0.156117 0)
(0.117438 -0.157071 0)
(0.128837 -0.147587 0)
(0.132231 -0.127553 0)
(0.119208 -0.097701 0)
(0.0754885 -0.0603204 0)
(-0.00824745 -0.0246792 0)
(-0.097812 -0.0132116 0)
(-0.184167 0.0611559 0)
(-0.239943 -0.151001 0)
(0.0955784 -0.00765157 0)
(0.0984947 -0.00333144 0)
(0.0877221 -0.00834911 0)
(0.136638 -0.00709232 0)
(0.12054 -0.0130978 0)
(0.103509 -0.0314716 0)
(0.0898458 -0.0542515 0)
(0.0808264 -0.0776385 0)
(0.0769912 -0.0992351 0)
(0.0782011 -0.11695 0)
(0.0833999 -0.128648 0)
(0.0903372 -0.132444 0)
(0.0951761 -0.126747 0)
(0.0928576 -0.11105 0)
(0.0754164 -0.0856237 0)
(0.033683 -0.0528306 0)
(-0.0388694 -0.0207679 0)
(-0.112909 -0.0142565 0)
(-0.186761 0.0674851 0)
(-0.23428 -0.161951 0)
(0.101578 -0.00465497 0)
(0.0986758 0.000231848 0)
(0.0853527 -0.00590692 0)
(0.138888 -0.00411996 0)
(0.125415 -0.005322 0)
(0.108503 -0.0182892 0)
(0.0926101 -0.0357139 0)
(0.0795592 -0.0550809 0)
(0.0704523 -0.0737089 0)
(0.0655416 -0.0895462 0)
(0.0641404 -0.100891 0)
(0.0642736 -0.105891 0)
(0.0628566 -0.103148 0)
(0.0548259 -0.0913592 0)
(0.0346145 -0.0707693 0)
(-0.00702329 -0.0427657 0)
(-0.0662579 -0.0163066 0)
(-0.127121 -0.0162588 0)
(-0.18823 0.0745797 0)
(-0.229157 -0.174201 0)
(0.103648 -0.00303743 0)
(0.0984595 0.00165683 0)
(0.0848318 -0.00455064 0)
(0.137012 -0.00153261 0)
(0.126586 0.000781391 0)
(0.111042 -0.00811443 0)
(0.0943551 -0.0207609 0)
(0.078415 -0.0361334 0)
(0.0648435 -0.0516497 0)
(0.0544445 -0.0652062 0)
(0.046974 -0.0751997 0)
(0.0410036 -0.0804246 0)
(0.0334916 -0.0792604 0)
(0.0210182 -0.070993 0)
(-0.00273234 -0.0545645 0)
(-0.039939 -0.0332972 0)
(-0.0890478 -0.0127306 0)
(-0.139511 -0.0192058 0)
(-0.18875 0.0810036 0)
(-0.224027 -0.187166 0)
(0.104116 -0.00232711 0)
(0.0985654 0.00223469 0)
(0.0850798 -0.00369733 0)
(0.131744 0.000949359 0)
(0.124618 0.00601246 0)
(0.111203 0.000286179 0)
(0.0949036 -0.00867125 0)
(0.0773504 -0.0205897 0)
(0.0604496 -0.0333428 0)
(0.0455284 -0.0447861 0)
(0.0329183 -0.0533971 0)
(0.0215921 -0.058042 0)
(0.0095397 -0.0581324 0)
(-0.00765177 -0.0519019 0)
(-0.0312665 -0.0412094 0)
(-0.0638436 -0.0266657 0)
(-0.105781 -0.0116519 0)
(-0.149239 -0.0226106 0)
(-0.188838 0.0854376 0)
(-0.21894 -0.199568 0)
(0.104111 -0.00197066 0)
(0.0987746 0.00254153 0)
(0.0855897 -0.00305905 0)
(0.123039 0.00361609 0)
(0.120015 0.0109493 0)
(0.109242 0.00781104 0)
(0.0941166 0.00152783 0)
(0.0762228 -0.00775873 0)
(0.0572517 -0.0183468 0)
(0.0390294 -0.0282654 0)
(0.0224955 -0.0359365 0)
(0.00736492 -0.0405278 0)
(-0.00857393 -0.040956 0)
(-0.0263201 -0.0387984 0)
(-0.0493978 -0.0328414 0)
(-0.0796844 -0.0233496 0)
(-0.117074 -0.0127667 0)
(-0.156257 -0.0254748 0)
(-0.189088 0.0865299 0)
(-0.214371 -0.209865 0)
(0.103899 -0.00170783 0)
(0.0988844 0.00282904 0)
(0.0864783 -0.00237123 0)
(0.110146 0.00696271 0)
(0.112861 0.0161389 0)
(0.105489 0.0150137 0)
(0.0921259 0.010609 0)
(0.074707 0.00321891 0)
(0.0550249 -0.00583452 0)
(0.034773 -0.0148788 0)
(0.0156748 -0.0223676 0)
(-0.0019601 -0.0272945 0)
(-0.0187551 -0.0300046 0)
(-0.0372033 -0.0303546 0)
(-0.0599964 -0.0280424 0)
(-0.0891965 -0.0222589 0)
(-0.124351 -0.0151517 0)
(-0.161008 -0.0278046 0)
(-0.189785 0.0827226 0)
(-0.211112 -0.216796 0)
(0.103446 -0.00144402 0)
(0.0988594 0.00337479 0)
(0.088517 -0.00112071 0)
(0.0900745 0.0117543 0)
(0.103128 0.0223216 0)
(0.100153 0.0224431 0)
(0.0891473 0.0191159 0)
(0.072903 0.0129847 0)
(0.0532731 0.00500305 0)
(0.032301 -0.00358854 0)
(0.0117567 -0.011425 0)
(-0.00702059 -0.0174239 0)
(-0.0245115 -0.0218068 0)
(-0.0430168 -0.0243493 0)
(-0.0657936 -0.0246062 0)
(-0.0947657 -0.0218531 0)
(-0.129145 -0.0176413 0)
(-0.164473 -0.0295661 0)
(-0.191211 0.0765587 0)
(-0.21019 -0.219277 0)
(0.102612 -0.00106678 0)
(0.0986187 0.00472141 0)
(0.093626 0.00347655 0)
(0.0748431 0.0382363 0)
(0.0903903 0.0308607 0)
(0.0935113 0.0307573 0)
(0.0853994 0.0275701 0)
(0.0708105 0.0220271 0)
(0.0520216 0.0146966 0)
(0.0309893 0.006371 0)
(0.00989525 -0.00189383 0)
(-0.00957143 -0.00904823 0)
(-0.0274829 -0.0147348 0)
(-0.0461494 -0.0188536 0)
(-0.06886 -0.0212759 0)
(-0.098004 -0.0209723 0)
(-0.13248 -0.0193368 0)
(-0.167323 -0.0307527 0)
(-0.193395 0.0699468 0)
(-0.212346 -0.218555 0)
(0.101027 -0.000337495 0)
(0.097363 0.00821647 0)
(0.0920807 0.0264541 0)
(0.0629217 0.062995 0)
(0.0778359 0.049589 0)
(0.0858893 0.0408986 0)
(0.0812041 0.0364986 0)
(0.0685279 0.0307876 0)
(0.0509813 0.0236933 0)
(0.0306183 0.0154755 0)
(0.00945053 0.00686231 0)
(-0.0105604 -0.00118976 0)
(-0.0289273 -0.00792776 0)
(-0.0477306 -0.0132561 0)
(-0.0704011 -0.0173158 0)
(-0.0997941 -0.0191337 0)
(-0.134799 -0.0197906 0)
(-0.169788 -0.0312856 0)
(-0.196277 0.0635999 0)
(-0.217556 -0.215828 0)
(0.0977706 0.00129445 0)
(0.0916071 0.0176514 0)
(0.0751905 0.0444945 0)
(0.0779333 0.0871729 0)
(0.0665872 0.0744696 0)
(0.0792959 0.0560659 0)
(0.0770093 0.0464799 0)
(0.0662665 0.0396404 0)
(0.0500784 0.0323425 0)
(0.0306891 0.0241161 0)
(0.00995115 0.015215 0)
(-0.0103574 0.00645493 0)
(-0.0293642 -0.00113644 0)
(-0.0484083 -0.00738466 0)
(-0.0709899 -0.0126286 0)
(-0.100577 -0.0161975 0)
(-0.136279 -0.0188292 0)
(-0.171864 -0.0310584 0)
(-0.199725 0.0579811 0)
(-0.225433 -0.211294 0)
(0.0909678 0.004626 0)
(0.0774005 0.0268236 0)
(0.0711295 0.060709 0)
(-0.115988 0.143008 0)
(0.0975639 0.103652 0)
(0.0732509 0.0768158 0)
(0.074246 0.0588422 0)
(0.0643586 0.0488944 0)
(0.04936 0.0408722 0)
(0.031011 0.0325234 0)
(0.0109582 0.0234311 0)
(-0.00935861 0.0140742 0)
(-0.0288977 0.00567214 0)
(-0.0484331 -0.00133498 0)
(-0.0709719 -0.0073627 0)
(-0.100607 -0.0122606 0)
(-0.13701 -0.0164264 0)
(-0.173498 -0.0299898 0)
(-0.203546 0.0534866 0)
(-0.2354 -0.205054 0)
(0.0785102 0.00857726 0)
(0.0648038 0.0353044 0)
(-0.0889132 0.105288 0)
(0.0196831 0.144476 0)
(0.0947946 0.103282 0)
(0.0722621 0.0740248 0)
(0.0637286 0.0590602 0)
(0.0489772 0.0493917 0)
(0.0314795 0.040799 0)
(0.0122688 0.031628 0)
(-0.00775344 0.0218117 0)
(-0.0277017 0.0125787 0)
(-0.0477909 0.00475054 0)
(-0.0705139 -0.00180822 0)
(-0.10011 -0.00755331 0)
(-0.137082 -0.0126935 0)
(-0.174669 -0.0280516 0)
(-0.207478 0.0504597 0)
(-0.246703 -0.197352 0)
(0.0631192 0.0129058 0)
(-0.0499632 0.0665664 0)
(0.0993894 0.187866 0)
(0.0761502 0.11305 0)
(0.0846893 0.0937928 0)
(0.0641758 0.0701954 0)
(0.0494479 0.058 0)
(0.0320218 0.0489286 0)
(0.0136747 0.0398578 0)
(-0.00569977 0.0297574 0)
(-0.0257475 0.0197064 0)
(-0.046509 0.0108797 0)
(-0.0696082 0.00371514 0)
(-0.0992542 -0.00242417 0)
(-0.136615 -0.0078888 0)
(-0.175404 -0.0252817 0)
(-0.211193 0.0491307 0)
(-0.258441 -0.188655 0)
(-0.00491547 0.0316884 0)
(0.142065 0.152267 0)
(0.0926139 0.0529915 0)
(0.086948 0.097762 0)
(0.0725488 0.0841193 0)
(0.0507871 0.0664768 0)
(0.0326971 0.0568078 0)
(0.014888 0.0481203 0)
(-0.00343936 0.0380415 0)
(-0.0231124 0.0272165 0)
(-0.0443466 0.0172012 0)
(-0.0683208 0.00908251 0)
(-0.0980719 0.00269846 0)
(-0.135721 -0.00246095 0)
(-0.175779 -0.021763 0)
(-0.214322 0.0495208 0)
(-0.269635 -0.179555 0)
(-0.228189 0.208383 0)
(0.148148 -0.0362211 0)
(0.0915978 0.0592288 0)
(0.0815943 0.0882395 0)
(0.0566547 0.0756423 0)
(0.0331136 0.0640943 0)
(0.0155463 0.056339 0)
(-0.00139152 0.046865 0)
(-0.0199801 0.0353915 0)
(-0.0412568 0.0239743 0)
(-0.0662004 0.0144513 0)
(-0.0968626 0.00751998 0)
(-0.134408 0.00289184 0)
(-0.175874 -0.0175489 0)
(-0.216534 0.0513255 0)
(-0.279303 -0.170564 0)
(-0.330963 0.106306 0)
(0.18288 0.0272855 0)
(0.0800835 0.0673964 0)
(0.0658197 0.0765521 0)
(0.0344351 0.0711419 0)
(0.0150607 0.0643485 0)
(-0.000291807 0.0564305 0)
(-0.0167392 0.044692 0)
(-0.0372809 0.0316229 0)
(-0.0630767 0.0201637 0)
(-0.0952159 0.0120726 0)
(-0.133119 0.00742264 0)
(-0.175596 -0.0125434 0)
(-0.217617 0.0537898 0)
(-0.28654 -0.161913 0)
(-0.282859 0.155835 0)
(0.241219 0.0563032 0)
(0.0584177 0.0515939 0)
(0.0250266 0.0734979 0)
(0.0132358 0.0733847 0)
(-0.000826855 0.0672246 0)
(-0.014222 0.0558115 0)
(-0.0326252 0.0408188 0)
(-0.05885 0.0267503 0)
(-0.0928703 0.0167298 0)
(-0.131891 0.0113156 0)
(-0.174696 -0.00647694 0)
(-0.21748 0.0555566 0)
(-0.290625 -0.153465 0)
(-0.562483 0.235048 0)
(0.297362 0.0754779 0)
(0.0221232 0.0859599 0)
(-0.0142318 0.0943551 0)
(-0.0053446 0.0839113 0)
(-0.013164 0.070207 0)
(-0.0278946 0.0526707 0)
(-0.0534898 0.0350597 0)
(-0.0896039 0.0220767 0)
(-0.130387 0.0150947 0)
(-0.173133 -0.000458237 0)
(-0.216023 0.0545854 0)
(-0.291231 -0.144762 0)
(-0.772287 0.306255 0)
(0.119788 0.166996 0)
(-0.00681635 0.131179 0)
(-0.0371481 0.122338 0)
(-0.0133571 0.0936777 0)
(-0.0235379 0.0692166 0)
(-0.0471168 0.0464379 0)
(-0.0850116 0.0289362 0)
(-0.128315 0.0193272 0)
(-0.17077 0.00530008 0)
(-0.213237 0.0521491 0)
(-0.288622 -0.135289 0)
(-0.651628 0.312349 0)
(0.0815436 0.186405 0)
(-0.0301513 0.166201 0)
(-0.0350991 0.140701 0)
(-0.0159329 0.0948843 0)
(-0.0394955 0.0627388 0)
(-0.0785102 0.0383566 0)
(-0.125158 0.0245639 0)
(-0.167526 0.0111516 0)
(-0.208895 0.0495884 0)
(-0.283903 -0.126333 0)
(-0.560187 0.238667 0)
(0.0213814 0.187121 0)
(-0.0270584 0.197765 0)
(-0.0155763 0.13989 0)
(-0.0268935 0.0862248 0)
(-0.0692295 0.0513396 0)
(-0.120272 0.0312834 0)
(-0.163166 0.0175102 0)
(-0.202823 0.0472961 0)
(-0.277714 -0.11823 0)
(-0.529294 0.152678 0)
(0.0337263 0.188025 0)
(-0.0120817 0.208635 0)
(-0.00896461 0.121593 0)
(-0.054394 0.0682109 0)
(-0.113183 0.0395811 0)
(-0.157719 0.0246376 0)
(-0.194703 0.0455399 0)
(-0.270026 -0.11026 0)
(-0.538652 0.0573249 0)
(0.136078 0.204523 0)
(0.00122984 0.180621 0)
(-0.0297245 0.0891638 0)
(-0.1022 0.0483701 0)
(-0.15227 0.0323883 0)
(-0.184502 0.0445245 0)
(-0.260582 -0.101849 0)
(-0.426869 0.0637458 0)
(0.173682 0.187496 0)
(-0.00162626 0.124946 0)
(-0.0800639 0.0562004 0)
(-0.14737 0.0403096 0)
(-0.172918 0.0440379 0)
(-0.2496 -0.0928346 0)
(-0.354147 0.121336 0)
(0.188121 0.154601 0)
(-0.0345405 0.0718073 0)
(-0.135661 0.0504963 0)
(-0.158751 0.0433964 0)
(-0.238212 -0.0835341 0)
(-0.350223 0.183168 0)
(0.123622 0.136098 0)
(-0.104442 0.0752392 0)
(-0.130488 0.0436112 0)
(-0.225133 -0.0743373 0)
(-0.480775 0.243673 0)
(-0.107027 0.130912 0)
(-0.0647112 0.0523326 0)
(-0.197268 -0.0635271 0)
(-0.58321 0.192929 0)
(0.0941657 0.0886403 0)
(-0.1363 -0.0423049 0)
(-0.470411 0.0841447 0)
(-0.113733 0.00347008 0)
(-0.617447 0.0412618 0)
)
;

boundaryField
{
    floor
    {
        type            noSlip;
    }
    ceiling
    {
        type            noSlip;
    }
    sWall
    {
        type            noSlip;
    }
    nWall
    {
        type            noSlip;
    }
    sideWalls
    {
        type            empty;
    }
    glass1
    {
        type            noSlip;
    }
    glass2
    {
        type            noSlip;
    }
    sun
    {
        type            noSlip;
    }
    Table_master
    {
        type            noSlip;
    }
    Table_slave
    {
        type            noSlip;
    }
    inlet
    {
        type            fixedValue;
        value           uniform (0.5 0 0);
    }
    outlet
    {
        type            zeroGradient;
    }
}


// ************************************************************************* //
