/*--------------------------------*- C++ -*----------------------------------*\
  =========                 |
  \\      /  F ield         | OpenFOAM: The Open Source CFD Toolbox
   \\    /   O peration     | Website:  https://openfoam.org
    \\  /    A nd           | Version:  6
     \\/     M anipulation  |
\*---------------------------------------------------------------------------*/
FoamFile
{
    version     2.0;
    format      ascii;
    class       volScalarField;
    location    "15500";
    object      epsilon;
}
// * * * * * * * * * * * * * * * * * * * * * * * * * * * * * * * * * * * * * //

dimensions      [0 2 -3 0 0 0 0];

internalField   nonuniform List<scalar> 
778
(
0.00025312
0.000306371
0.000303049
0.000344258
0.000385159
0.000425002
0.000464475
0.000504767
0.000547609
0.000595717
0.000644116
0.000692431
0.000742316
0.000798578
0.000860257
8.9445e-05
0.000262478
0.00026883
0.000249729
0.000219892
0.000183919
0.000152223
0.000126451
0.000105859
8.94047e-05
7.62598e-05
6.56107e-05
5.68176e-05
4.93545e-05
4.2749e-05
3.65023e-05
3.18064e-05
2.35945e-05
0.000796986
0.00144325
0.000287036
0.000259654
0.000261762
0.000267739
0.000276637
0.000290069
0.000310323
0.000340521
0.000379709
0.000430783
0.000499108
0.000600241
0.000785303
0.00112883
0.000978298
0.000858058
0.000512293
0.00036956
0.000294168
0.000242759
0.00020389
0.000186688
0.000154534
0.000124894
0.000100625
8.14395e-05
6.64904e-05
5.4795e-05
4.56097e-05
3.86896e-05
3.45013e-05
3.27411e-05
6.58021e-05
4.80781e-05
0.00163059
0.00407928
0.000407448
0.000242987
0.000229166
0.000231078
0.000238293
0.00025056
0.00026846
0.000292716
0.000324818
0.000366843
0.000421176
0.000494833
0.000601186
0.00072442
0.000829477
0.00158371
0.00102837
0.000512559
0.000367814
0.000294297
0.000262017
0.000551059
0.000362202
0.00025039
0.000181064
0.000136098
0.000105783
8.46866e-05
6.97554e-05
5.94141e-05
4.51008e-05
3.79544e-05
0.000108325
7.07936e-05
0.00285344
0.00877104
0.000709976
0.000240778
0.000202532
0.000200064
0.00020323
0.000209849
0.000220657
0.00023756
0.000263229
0.000299939
0.000349102
0.000412189
0.000487855
0.000560071
0.000612252
0.000824191
0.00156475
0.000729202
0.000459908
0.000358348
0.000301925
0.000291791
0.000814032
0.00061243
0.000481537
0.000388085
0.000318722
0.000263965
0.000218458
0.000178761
0.000141627
8.36606e-05
5.47951e-05
0.00014905
9.44688e-05
0.00454586
0.0158288
0.00134656
0.000258392
0.000175776
0.000166829
0.000165829
0.000167796
0.00017395
0.000187447
0.000211674
0.00024832
0.000297675
0.000359145
0.000427559
0.000488937
0.000528339
0.000582307
0.000627302
0.000483141
0.000393492
0.000331051
0.000282307
0.000248616
0.000247807
0.000226726
0.000202865
0.000180975
0.000162593
0.000146438
0.00013178
0.000118204
0.00010506
8.44411e-05
6.40867e-05
0.000105318
0.000138865
0.000160439
0.000379312
0.000329003
0.00676341
0.024881
0.00255393
0.000318123
0.000155572
0.000137094
0.000132148
0.000130707
0.00013447
0.000148561
0.000176704
0.00021804
0.00027069
0.000333901
0.00040142
0.000462293
0.00050267
0.000521433
0.000504602
0.000438163
0.000373801
0.000315654
0.000264742
0.000223374
0.000193272
0.000169612
0.000150798
0.000135612
0.000123277
0.000112725
0.000103266
9.45104e-05
8.60848e-05
7.59082e-05
6.52604e-05
7.75561e-05
9.97302e-05
0.000214759
0.00109833
0.000559457
0.00967197
0.0336404
0.00458477
0.00046506
0.000150866
0.000116361
0.000107102
0.000103291
0.000107084
0.000127931
0.000166141
0.000215872
0.000273213
0.000339854
0.000409004
0.000470078
0.00050982
0.000520166
0.000494119
0.000437525
0.000371807
0.000307472
0.000250538
0.000204419
0.000169728
0.000144547
0.000126327
0.000112746
0.000102287
9.37086e-05
8.62049e-05
7.9324e-05
7.2793e-05
6.61462e-05
6.02655e-05
6.36137e-05
7.68161e-05
0.000179651
0.00166231
0.000925404
0.0127589
0.0404099
0.00749183
0.000871436
0.000194283
0.00011538
9.73853e-05
9.14538e-05
9.86323e-05
0.000137707
0.000189289
0.000246249
0.000306985
0.000373686
0.000444573
0.000507814
0.000547136
0.000550708
0.000515528
0.000451456
0.000375474
0.000300948
0.000236469
0.000185949
0.000149306
0.000123988
0.000106732
9.46016e-05
8.57675e-05
7.8824e-05
7.28977e-05
6.75166e-05
6.24567e-05
5.76549e-05
5.38757e-05
5.54445e-05
7.07753e-05
0.000380072
0.00581786
0.00214929
0.0138271
0.0414595
0.0139356
0.00316449
0.000630057
0.000207979
0.000132642
0.000115957
0.000142383
0.000192839
0.000249223
0.000306383
0.000367343
0.000436665
0.000511126
0.000575744
0.000610832
0.000603
0.000551977
0.000470836
0.000378433
0.000290905
0.000218267
0.00016404
0.000126806
0.000102651
8.73416e-05
7.74067e-05
7.0726e-05
6.57192e-05
6.14976e-05
5.76307e-05
5.39599e-05
5.05559e-05
4.81491e-05
5.1279e-05
9.95086e-05
0.00119747
0.0156239
0.00313334
0.0130038
0.0283693
0.0144167
0.00572689
0.00210402
0.000834298
0.000413472
0.000276704
0.000278799
0.000314374
0.000355919
0.00040166
0.000458719
0.000531251
0.000610471
0.000674379
0.000698812
0.000670469
0.000593544
0.000486478
0.000372568
0.000270726
0.00019124
0.000135867
0.000100782
7.99775e-05
6.80636e-05
6.12856e-05
5.72027e-05
5.42497e-05
5.16814e-05
4.91968e-05
4.67431e-05
4.45241e-05
4.36151e-05
5.22231e-05
0.00020592
0.00370902
0.0117385
0.00328681
0.0106886
0.0193564
0.0120388
0.00630003
0.00317394
0.00167415
0.000986224
0.00067854
0.000559569
0.000516942
0.00051015
0.000531461
0.000584166
0.00066374
0.000748679
0.000806003
0.000807604
0.000743824
0.000627538
0.000485668
0.000347453
0.000233676
0.000152723
0.000102003
7.37318e-05
5.89402e-05
5.14808e-05
4.80529e-05
4.62581e-05
4.49398e-05
4.36329e-05
4.22003e-05
4.07386e-05
3.97651e-05
4.13243e-05
5.80335e-05
0.000244245
0.00288765
0.0105785
0.00339793
0.00807155
0.0137697
0.00969199
0.00593288
0.00356905
0.00222684
0.00149018
0.00109233
0.00086869
0.000743085
0.000685681
0.000690488
0.000751829
0.000846899
0.000934565
0.000969969
0.000926334
0.000804956
0.000634025
0.000451584
0.000292966
0.000177609
0.000107276
6.96254e-05
5.25931e-05
4.44542e-05
4.06439e-05
3.92536e-05
3.86697e-05
3.82188e-05
3.76359e-05
3.69084e-05
3.6406e-05
3.74904e-05
4.4845e-05
8.09399e-05
0.000313574
0.00232045
0.00838535
0.00402683
0.00612374
0.0101688
0.00779179
0.0053126
0.00357008
0.00246898
0.00178777
0.00136798
0.00109268
0.000925845
0.000859457
0.000887983
0.000985632
0.00110139
0.00117313
0.00115196
0.00102664
0.00082051
0.000585112
0.000368103
0.000208539
0.000114702
7.21416e-05
5.21951e-05
4.27409e-05
3.80346e-05
3.57787e-05
3.49895e-05
3.46993e-05
3.4486e-05
3.42252e-05
3.41507e-05
3.54247e-05
4.21771e-05
6.98092e-05
0.000174781
0.000543748
0.0023127
0.00720741
0.00409616
0.00618391
0.00781511
0.00680644
0.00474043
0.00336617
0.00246275
0.00186599
0.00146244
0.00119458
0.00106472
0.00107148
0.00118347
0.00133478
0.00144374
0.00144263
0.00130142
0.00104949
0.000740084
0.000456014
0.000238011
0.000131044
8.15921e-05
5.95126e-05
4.85884e-05
4.25135e-05
3.89001e-05
3.68331e-05
3.5858e-05
3.54306e-05
3.52125e-05
3.52432e-05
3.62933e-05
4.15729e-05
6.2937e-05
0.000140324
0.000379161
0.00101987
0.00270502
0.00631493
0.00333869
0.00454658
0.00511636
0.00418634
0.00336247
0.00264023
0.00207051
0.00164933
0.00136195
0.00124472
0.00130107
0.00148117
0.00169315
0.00183282
0.00182361
0.00164007
0.00130064
0.000906197
0.000518302
0.000277934
0.000154653
0.000101227
7.7775e-05
6.57651e-05
5.81642e-05
5.2778e-05
4.89742e-05
4.65297e-05
4.52156e-05
4.49177e-05
4.51966e-05
4.62107e-05
4.92702e-05
5.93857e-05
9.32819e-05
0.000200863
0.000507448
0.0012733
0.00289953
0.00529553
0.00281768
0.00139825
0.00142846
0.00143085
0.00135238
0.00131067
0.0014218
0.00170675
0.00204496
0.00231259
0.00241501
0.0023003
0.00198385
0.00153064
0.000978095
0.000565637
0.000310777
0.000186294
0.000133513
0.000111089
9.91328e-05
9.07714e-05
8.40941e-05
7.88508e-05
7.52429e-05
7.34599e-05
7.34993e-05
7.5253e-05
7.87184e-05
8.35854e-05
9.08966e-05
0.000105112
0.000140353
0.000236015
0.000491249
0.00111709
0.00248987
0.00547317
0.00292609
0.001188
0.00171408
0.00195171
0.00230724
0.00275362
0.00315968
0.00334211
0.00331227
0.00309301
0.00270388
0.00213376
0.00151305
0.000976052
0.000572676
0.000339935
0.000230262
0.000185751
0.000166925
0.000156561
0.000148911
0.000142575
0.000137613
0.000134623
0.000134346
0.000137383
0.000143964
0.000153757
0.000166306
0.000181644
0.000199696
0.000223257
0.000262391
0.000343555
0.00053112
0.000993507
0.00236539
0.00454103
0.00369303
0.00741562
0.00809765
0.00481833
0.00340382
0.0037335
0.00414093
0.00415083
0.00393868
0.00358388
0.0031313
0.0026278
0.00208588
0.00153422
0.00104374
0.000676689
0.000454465
0.000349282
0.000306901
0.000290242
0.00028248
0.000277311
0.000272401
0.000267237
0.000262498
0.000259659
0.00026048
0.000266505
0.000278835
0.000298249
0.000325422
0.000360945
0.000406302
0.000464584
0.000548462
0.000686605
0.00092849
0.00143303
0.00321876
0.00447841
0.00410343
0.00650094
0.0051375
0.00435842
0.00461555
0.00453822
0.00427234
0.00369239
0.00304564
0.00245938
0.00196639
0.00156366
0.00124071
0.000986044
0.00079303
0.000653087
0.000560874
0.000507502
0.000480781
0.000471265
0.000472535
0.000479925
0.000490014
0.000500657
0.00051115
0.000522234
0.000535924
0.000555278
0.000584287
0.000627927
0.000692333
0.000785097
0.000915503
0.00109422
0.00133029
0.00164033
0.00207307
0.00272234
0.00411379
0.00574641
0.004484
0.00535876
0.00337375
0.00332586
0.00362931
0.0038966
0.00357179
0.00298408
0.00238287
0.00186562
0.00144481
0.00110675
0.000840042
0.000642208
0.000513271
0.000447167
0.000420895
0.00041764
0.000427382
0.00044421
0.000464587
0.000486268
0.000507922
0.00052905
0.000549997
0.00057191
0.000596624
0.000626604
0.000665178
0.000717235
0.000790273
0.000895211
0.00104592
0.00125662
0.00153831
0.00189844
0.00234922
0.00290488
0.00357945
0.0043392
0.00359819
)
;

boundaryField
{
    floor
    {
        Cmu             0.09;
        kappa           0.41;
        E               9.8;
        type            epsilonWallFunction;
        value           nonuniform List<scalar> 
36
(
0.000860257
8.9445e-05
0.000262478
0.00026883
0.000249729
0.000219892
0.000183919
0.000152223
0.000126451
0.000105859
8.94047e-05
7.62598e-05
6.56107e-05
5.68176e-05
4.93545e-05
4.2749e-05
3.65023e-05
3.18064e-05
2.35945e-05
2.35945e-05
4.80781e-05
7.07936e-05
9.44688e-05
0.000160439
0.000379312
0.000329003
0.000860257
0.00112883
0.000978298
0.000858058
8.9445e-05
0.000858058
0.000512293
0.00158371
0.00102837
0.00156475
)
;
    }
    ceiling
    {
        Cmu             0.09;
        kappa           0.41;
        E               9.8;
        type            epsilonWallFunction;
        value           nonuniform List<scalar> 
43
(
0.00535876
0.00337375
0.00332586
0.00362931
0.0038966
0.00357179
0.00298408
0.00238287
0.00186562
0.00144481
0.00110675
0.000840042
0.000642208
0.000513271
0.000447167
0.000420895
0.00041764
0.000427382
0.00044421
0.000464587
0.000486268
0.000507922
0.00052905
0.000549997
0.00057191
0.000596624
0.000626604
0.000665178
0.000717235
0.000790273
0.000895211
0.00104592
0.00125662
0.00153831
0.00189844
0.00234922
0.00290488
0.00357945
0.0043392
0.00359819
0.00454658
0.00511636
0.001188
)
;
    }
    sWall
    {
        Cmu             0.09;
        kappa           0.41;
        E               9.8;
        type            epsilonWallFunction;
        value           nonuniform List<scalar> 9(0.0130038 0.0106886 0.00807155 0.00612374 0.00618391 0.00454658 0.00741562 0.00650094 0.00535876);
    }
    nWall
    {
        Cmu             0.09;
        kappa           0.41;
        E               9.8;
        type            epsilonWallFunction;
        value           nonuniform List<scalar> 
14
(
0.000329003
0.000559457
0.000925404
0.00328681
0.00339793
0.00402683
0.00409616
0.00333869
0.00281768
0.00292609
0.00369303
0.00410343
0.004484
0.00359819
)
;
    }
    sideWalls
    {
        type            empty;
    }
    glass1
    {
        Cmu             0.09;
        kappa           0.41;
        E               9.8;
        type            epsilonWallFunction;
        value           nonuniform List<scalar> 9(0.00025312 0.000796986 0.00163059 0.00285344 0.00454586 0.00676341 0.00967197 0.0127589 0.0138271);
    }
    glass2
    {
        Cmu             0.09;
        kappa           0.41;
        E               9.8;
        type            epsilonWallFunction;
        value           nonuniform List<scalar> 2(0.00214929 0.00313334);
    }
    sun
    {
        Cmu             0.09;
        kappa           0.41;
        E               9.8;
        type            epsilonWallFunction;
        value           nonuniform List<scalar> 
14
(
0.00025312
0.000306371
0.000303049
0.000344258
0.000385159
0.000425002
0.000464475
0.000504767
0.000547609
0.000595717
0.000644116
0.000692431
0.000742316
0.000798578
)
;
    }
    Table_master
    {
        Cmu             0.09;
        kappa           0.41;
        E               9.8;
        type            epsilonWallFunction;
        value           nonuniform List<scalar> 9(0.000551059 0.000362202 0.00025039 0.000181064 0.000136098 0.000105783 8.46866e-05 6.97554e-05 5.94141e-05);
    }
    Table_slave
    {
        Cmu             0.09;
        kappa           0.41;
        E               9.8;
        type            epsilonWallFunction;
        value           nonuniform List<scalar> 9(0.000814032 0.00061243 0.000481537 0.000388085 0.000318722 0.000263965 0.000218458 0.000178761 0.000141627);
    }
    inlet
    {
        type            turbulentMixingLengthDissipationRateInlet;
        mixingLength    0.01;
        phi             phi;
        k               k;
        value           uniform 0.000471671;
    }
    outlet
    {
        type            zeroGradient;
    }
}


// ************************************************************************* //
