/*--------------------------------*- C++ -*----------------------------------*\
  =========                 |
  \\      /  F ield         | OpenFOAM: The Open Source CFD Toolbox
   \\    /   O peration     | Website:  https://openfoam.org
    \\  /    A nd           | Version:  6
     \\/     M anipulation  |
\*---------------------------------------------------------------------------*/
FoamFile
{
    version     2.0;
    format      ascii;
    class       volScalarField;
    location    "9000";
    object      epsilon;
}
// * * * * * * * * * * * * * * * * * * * * * * * * * * * * * * * * * * * * * //

dimensions      [0 2 -3 0 0 0 0];

internalField   nonuniform List<scalar> 
778
(
0.000253146
0.000306384
0.000303024
0.000344189
0.000385039
0.000424826
0.000464245
0.000504487
0.000547289
0.000595371
0.000643788
0.000692162
0.000742144
0.00079853
0.000860341
8.94152e-05
0.000262846
0.000269265
0.000250182
0.000220297
0.000184202
0.000152396
0.000126566
0.000105951
8.94902e-05
7.63385e-05
6.56814e-05
5.6879e-05
4.94062e-05
4.27913e-05
3.65357e-05
3.1828e-05
2.3606e-05
0.000797075
0.00144334
0.000286997
0.000259573
0.00026166
0.000267621
0.000276506
0.000289923
0.000310162
0.000340351
0.000379558
0.000430686
0.00049911
0.000600386
0.000785642
0.00112944
0.000978803
0.000858522
0.000512332
0.000369801
0.000294514
0.000243136
0.00020425
0.000187053
0.000154764
0.000125026
0.000100705
8.14938e-05
6.65317e-05
5.48295e-05
4.56402e-05
3.87177e-05
3.45301e-05
3.27785e-05
6.58185e-05
4.81198e-05
0.00163082
0.00407966
0.000407442
0.000242909
0.000229074
0.000230981
0.000238192
0.000250454
0.000268351
0.000292615
0.000324742
0.000366828
0.000421262
0.000495051
0.000601546
0.00072488
0.000829897
0.00158458
0.00102777
0.000512541
0.000367953
0.000294511
0.000262314
0.000552198
0.000363103
0.000251025
0.000181484
0.000136365
0.000105953
8.47987e-05
6.9837e-05
5.94794e-05
4.51531e-05
3.80032e-05
0.000108178
7.08744e-05
0.00285394
0.00877189
0.000710056
0.000240717
0.000202453
0.000199983
0.000203153
0.000209776
0.000220589
0.000237501
0.000263194
0.000299962
0.000349227
0.000412443
0.000488212
0.000560438
0.000612445
0.00082417
0.00156435
0.000729026
0.000459846
0.000358322
0.000301925
0.000291827
0.000814474
0.000613072
0.000482261
0.000388761
0.000319307
0.000264452
0.000218859
0.000179099
0.000141925
8.3901e-05
5.49684e-05
0.000148577
9.4684e-05
0.00454675
0.01583
0.00134681
0.000258363
0.000175714
0.000166765
0.000165772
0.000167749
0.00017391
0.000187413
0.000211659
0.000248362
0.000297835
0.000359468
0.000428013
0.000489425
0.000528688
0.000582425
0.000627231
0.000483057
0.000393388
0.00033096
0.000282259
0.000248618
0.00024785
0.000226799
0.000202949
0.00018104
0.000162646
0.000146484
0.000131826
0.00011825
0.000105111
8.4553e-05
6.43022e-05
0.000105272
0.000138957
0.000160409
0.000363185
0.000324656
0.00676479
0.0248819
0.00255444
0.000318149
0.000155531
0.000137047
0.000132108
0.000130677
0.000134447
0.000148535
0.000176687
0.000218082
0.000270878
0.000334316
0.000402017
0.000462951
0.000503215
0.000521764
0.000504738
0.000438182
0.000373755
0.000315602
0.000264721
0.000223391
0.000193308
0.000169646
0.000150817
0.000135611
0.000123266
0.000112715
0.000103267
9.45173e-05
8.60832e-05
7.59221e-05
6.54219e-05
7.76797e-05
9.9897e-05
0.000208342
0.00105707
0.000557848
0.00967382
0.0336401
0.00458546
0.0004652
0.000150863
0.000116338
0.000107079
0.000103274
0.000107069
0.000127893
0.000166095
0.000215886
0.00027341
0.000340352
0.000409754
0.000470919
0.00051056
0.000520687
0.000494422
0.000437671
0.000371864
0.000307499
0.000250566
0.000204455
0.00016976
0.000144559
0.000126316
0.000112717
0.000102254
9.36853e-05
8.62022e-05
7.93388e-05
7.27998e-05
6.61305e-05
6.03464e-05
6.38817e-05
7.69165e-05
0.000172663
0.00158398
0.000907386
0.012761
0.0404077
0.00749225
0.000871919
0.00019441
0.000115418
9.74007e-05
9.1464e-05
9.86711e-05
0.000137682
0.000189235
0.000246256
0.00030721
0.000374247
0.000445437
0.000508792
0.000548018
0.000551375
0.000515977
0.000451742
0.000375655
0.000301068
0.000236549
0.000185997
0.000149322
0.000123972
0.000106688
9.45443e-05
8.57083e-05
7.8778e-05
7.28801e-05
6.75315e-05
6.24818e-05
5.76598e-05
5.39481e-05
5.60484e-05
7.08641e-05
0.000342041
0.00525374
0.00199211
0.0138289
0.0414561
0.0139351
0.00316617
0.000631045
0.000208347
0.000132821
0.000116072
0.000142553
0.000192942
0.000249255
0.000306457
0.00036764
0.000437301
0.000512045
0.000576756
0.000611749
0.000603747
0.000552568
0.000471298
0.000378778
0.000291135
0.000218392
0.000164082
0.000126792
0.000102598
8.72622e-05
7.73181e-05
7.06324e-05
6.56315e-05
6.14325e-05
5.76012e-05
5.39604e-05
5.05803e-05
4.83805e-05
5.32242e-05
0.000103316
0.000997743
0.0128183
0.00303032
0.0130047
0.0283648
0.0144161
0.00572921
0.00210657
0.000836062
0.000414534
0.00027736
0.000279403
0.000314804
0.000356191
0.000401917
0.000459143
0.000531923
0.000611304
0.000675223
0.000699589
0.00067122
0.000594309
0.000487208
0.00037315
0.000271088
0.000191385
0.000135873
0.000100723
7.98928e-05
6.79651e-05
6.11775e-05
5.70794e-05
5.4115e-05
5.15435e-05
4.90626e-05
4.66097e-05
4.44143e-05
4.40014e-05
5.8433e-05
0.000263884
0.00338141
0.0100551
0.00311993
0.010688
0.0193509
0.0120376
0.00630172
0.0031764
0.00167637
0.000988001
0.000679976
0.000560746
0.000517804
0.000510755
0.000531963
0.000584688
0.000664258
0.000749083
0.000806296
0.000807972
0.000744529
0.000628608
0.00048684
0.000348352
0.000234152
0.000152814
0.000101951
7.36579e-05
5.88769e-05
5.14236e-05
4.79597e-05
4.6136e-05
4.47931e-05
4.34578e-05
4.1977e-05
4.0416e-05
3.92434e-05
4.12505e-05
7.6814e-05
0.000701069
0.00338501
0.00733436
0.00296375
0.00806915
0.0137646
0.0096898
0.00593334
0.00357041
0.00222831
0.00149159
0.0010939
0.000869995
0.000744107
0.000686483
0.000691108
0.000752158
0.00084671
0.0009338
0.000969054
0.000925971
0.000805703
0.000635681
0.000453391
0.000294077
0.000178033
0.000107195
6.96354e-05
5.2631e-05
4.44946e-05
4.06487e-05
3.91953e-05
3.85825e-05
3.81193e-05
3.7533e-05
3.6781e-05
3.60805e-05
3.61942e-05
4.08481e-05
9.05902e-05
0.000658205
0.00287156
0.00644177
0.00280734
0.00612084
0.010164
0.00778816
0.00531158
0.00357005
0.00246934
0.00178836
0.00136864
0.00109338
0.000926598
0.000860179
0.000888308
0.000984949
0.00109924
0.00116983
0.00114894
0.00102539
0.000821718
0.000587645
0.000370355
0.000209048
0.000114934
7.2165e-05
5.23134e-05
4.29748e-05
3.82971e-05
3.59514e-05
3.50082e-05
3.46521e-05
3.445e-05
3.43045e-05
3.43874e-05
3.5202e-05
3.79664e-05
4.70773e-05
9.30793e-05
0.000480328
0.00223113
0.00540445
0.00325906
0.00618447
0.00780602
0.00680092
0.0047377
0.0033646
0.00246187
0.00186563
0.00146225
0.00119475
0.00106532
0.00107194
0.00118258
0.00133125
0.00143726
0.00143483
0.0012957
0.00104794
0.000742461
0.000458496
0.000239321
0.000131021
8.12771e-05
5.9459e-05
4.90004e-05
4.33033e-05
3.97933e-05
3.74886e-05
3.60532e-05
3.53493e-05
3.51062e-05
3.55254e-05
3.74211e-05
4.24951e-05
5.40645e-05
7.95481e-05
0.000144692
0.000445976
0.00197397
0.004119
0.00354172
0.00454717
0.00511297
0.00418443
0.00336122
0.0026391
0.00206944
0.00164834
0.00136138
0.00124518
0.00130205
0.00148071
0.00168865
0.00182282
0.00180945
0.00162637
0.00129359
0.000905927
0.000520454
0.000278489
0.000153586
9.98224e-05
7.70192e-05
6.61814e-05
5.98615e-05
5.54402e-05
5.18978e-05
4.88021e-05
4.61037e-05
4.44986e-05
4.42728e-05
4.62465e-05
5.31253e-05
7.04849e-05
0.00010794
0.000180607
0.000321118
0.000661691
0.00203888
0.00380647
0.00361994
0.00140034
0.00143023
0.00143161
0.00135159
0.0013087
0.00142206
0.00170861
0.00204556
0.00230768
0.00240151
0.00227933
0.00196051
0.00151307
0.000972936
0.000563334
0.00030856
0.000183186
0.000130556
0.00010949
9.97683e-05
9.4156e-05
9.02582e-05
8.71486e-05
8.42227e-05
8.09674e-05
7.71916e-05
7.37275e-05
7.35119e-05
7.80913e-05
9.30068e-05
0.000129841
0.000208666
0.000360274
0.00063687
0.00116016
0.00224855
0.00426009
0.00318528
0.00118776
0.00171205
0.00194745
0.00230258
0.00275126
0.00315687
0.00333902
0.003305
0.00307749
0.00267904
0.00210678
0.00148484
0.000953206
0.000557234
0.000329366
0.000223384
0.000182076
0.000166616
0.000160022
0.00015664
0.000154976
0.00015463
0.000155271
0.000156257
0.000156559
0.00015501
0.000151147
0.000148649
0.000153979
0.00017307
0.000219956
0.000320486
0.000518328
0.000888874
0.00157126
0.00272617
0.00425029
0.00291121
0.00742312
0.00811668
0.00481379
0.00339539
0.00372471
0.00413542
0.00414821
0.00393856
0.00358391
0.00312928
0.00261658
0.00206756
0.00151525
0.00102851
0.000670073
0.000456585
0.000357768
0.000319533
0.000304815
0.000297198
0.00029154
0.000286984
0.000284127
0.000283898
0.000287002
0.000293492
0.000302367
0.000311411
0.000317847
0.000320927
0.000332368
0.000359959
0.000413943
0.000517376
0.000711772
0.00106948
0.00172552
0.00294615
0.0052317
0.00341431
0.00650438
0.00514261
0.00436253
0.00461526
0.00453056
0.00426131
0.00368073
0.00303555
0.00245182
0.0019606
0.00155703
0.00122599
0.000960633
0.000764594
0.000638208
0.000569653
0.000538068
0.000524685
0.0005187
0.000515369
0.000513292
0.000513016
0.000516271
0.000525475
0.000543293
0.000572082
0.000613184
0.00066607
0.000727626
0.000791823
0.000850627
0.000913938
0.000999109
0.00113356
0.00135864
0.00173928
0.0023963
0.00373651
0.00463967
0.00468752
0.00535507
0.00337146
0.00332159
0.00362124
0.00388324
0.00354963
0.00294986
0.00233299
0.00179906
0.00136584
0.00102552
0.00077039
0.00059502
0.00049004
0.000439022
0.00042252
0.000423128
0.000430757
0.000441063
0.000452716
0.000466212
0.000483378
0.000507092
0.000540958
0.00058872
0.000653317
0.000735827
0.000834933
0.000947575
0.00107083
0.00120471
0.0013516
0.00151398
0.00170435
0.00193962
0.00223386
0.00259043
0.00302526
0.00360688
0.00354804
)
;

boundaryField
{
    floor
    {
        Cmu             0.09;
        kappa           0.41;
        E               9.8;
        type            epsilonWallFunction;
        value           nonuniform List<scalar> 
36
(
0.000860341
8.94152e-05
0.000262846
0.000269265
0.000250182
0.000220297
0.000184202
0.000152396
0.000126566
0.000105951
8.94902e-05
7.63385e-05
6.56814e-05
5.6879e-05
4.94062e-05
4.27913e-05
3.65357e-05
3.1828e-05
2.3606e-05
2.3606e-05
4.81198e-05
7.08744e-05
9.4684e-05
0.000160409
0.000363185
0.000324656
0.000860341
0.00112944
0.000978803
0.000858522
8.94152e-05
0.000858522
0.000512332
0.00158458
0.00102777
0.00156435
)
;
    }
    ceiling
    {
        Cmu             0.09;
        kappa           0.41;
        E               9.8;
        type            epsilonWallFunction;
        value           nonuniform List<scalar> 
43
(
0.00535507
0.00337146
0.00332159
0.00362124
0.00388324
0.00354963
0.00294986
0.00233299
0.00179906
0.00136584
0.00102552
0.00077039
0.00059502
0.00049004
0.000439022
0.00042252
0.000423128
0.000430757
0.000441063
0.000452716
0.000466212
0.000483378
0.000507092
0.000540958
0.00058872
0.000653317
0.000735827
0.000834933
0.000947575
0.00107083
0.00120471
0.0013516
0.00151398
0.00170435
0.00193962
0.00223386
0.00259043
0.00302526
0.00360688
0.00354804
0.00454717
0.00511297
0.00118776
)
;
    }
    sWall
    {
        Cmu             0.09;
        kappa           0.41;
        E               9.8;
        type            epsilonWallFunction;
        value           nonuniform List<scalar> 9(0.0130047 0.010688 0.00806915 0.00612084 0.00618447 0.00454717 0.00742312 0.00650438 0.00535507);
    }
    nWall
    {
        Cmu             0.09;
        kappa           0.41;
        E               9.8;
        type            epsilonWallFunction;
        value           nonuniform List<scalar> 
14
(
0.000324656
0.000557848
0.000907386
0.00311993
0.00296375
0.00280734
0.00325906
0.00354172
0.00361994
0.00318528
0.00291121
0.00341431
0.00468752
0.00354804
)
;
    }
    sideWalls
    {
        type            empty;
    }
    glass1
    {
        Cmu             0.09;
        kappa           0.41;
        E               9.8;
        type            epsilonWallFunction;
        value           nonuniform List<scalar> 9(0.000253146 0.000797075 0.00163082 0.00285394 0.00454675 0.00676479 0.00967382 0.012761 0.0138289);
    }
    glass2
    {
        Cmu             0.09;
        kappa           0.41;
        E               9.8;
        type            epsilonWallFunction;
        value           nonuniform List<scalar> 2(0.00199211 0.00303032);
    }
    sun
    {
        Cmu             0.09;
        kappa           0.41;
        E               9.8;
        type            epsilonWallFunction;
        value           nonuniform List<scalar> 
14
(
0.000253146
0.000306384
0.000303024
0.000344189
0.000385039
0.000424826
0.000464245
0.000504487
0.000547289
0.000595371
0.000643788
0.000692162
0.000742144
0.00079853
)
;
    }
    Table_master
    {
        Cmu             0.09;
        kappa           0.41;
        E               9.8;
        type            epsilonWallFunction;
        value           nonuniform List<scalar> 9(0.000552198 0.000363103 0.000251025 0.000181484 0.000136365 0.000105953 8.47987e-05 6.9837e-05 5.94794e-05);
    }
    Table_slave
    {
        Cmu             0.09;
        kappa           0.41;
        E               9.8;
        type            epsilonWallFunction;
        value           nonuniform List<scalar> 9(0.000814474 0.000613072 0.000482261 0.000388761 0.000319307 0.000264452 0.000218859 0.000179099 0.000141925);
    }
    inlet
    {
        type            turbulentMixingLengthDissipationRateInlet;
        mixingLength    0.01;
        phi             phi;
        k               k;
        value           uniform 0.000471671;
    }
    outlet
    {
        type            zeroGradient;
    }
}


// ************************************************************************* //
