/*--------------------------------*- C++ -*----------------------------------*\
  =========                 |
  \\      /  F ield         | OpenFOAM: The Open Source CFD Toolbox
   \\    /   O peration     | Website:  https://openfoam.org
    \\  /    A nd           | Version:  6
     \\/     M anipulation  |
\*---------------------------------------------------------------------------*/
FoamFile
{
    version     2.0;
    format      ascii;
    class       volScalarField;
    location    "9000";
    object      nut;
}
// * * * * * * * * * * * * * * * * * * * * * * * * * * * * * * * * * * * * * //

dimensions      [0 2 -1 0 0 0 0];

internalField   nonuniform List<scalar> 
662
(
0.000992812
0.00107223
0.00109011
0.00114134
0.00118908
0.00123427
0.00127898
0.00132579
0.0013732
0.00141736
0.00145256
0.00146657
0.00143976
0.00134771
0.00109681
0.000490709
0.000576229
0.000651437
0.00067416
0.000660334
0.000616625
0.000569092
0.00052668
0.000489986
0.000458145
0.000430374
0.000406113
0.000384632
0.00036511
0.000346651
0.000328238
0.000318543
0.000293826
0.00135949
0.00285365
0.00254484
0.00291197
0.00325775
0.00361752
0.00396665
0.00426181
0.00454823
0.00489513
0.00528898
0.00567569
0.00594963
0.00595878
0.00518266
0.00131963
0.00108593
0.000884372
0.000489887
0.00115125
0.00166868
0.0020681
0.00219073
0.00160337
0.00135351
0.00118319
0.00105721
0.00096059
0.000883822
0.000817636
0.000755815
0.000694539
0.000639858
0.000592815
0.000729384
0.000392074
0.00169009
0.00397175
0.00291908
0.00372623
0.00405357
0.00425694
0.0043691
0.00443525
0.00454506
0.00478378
0.00518174
0.00573877
0.00633247
0.00673735
0.00658837
0.00543657
0.00423652
0.00105534
0.000773441
0.00131358
0.00188717
0.0024555
0.00261205
0.000834319
0.000729059
0.000642046
0.000571814
0.00051525
0.000469475
0.000432285
0.000402175
0.000378633
0.000417759
0.000481884
0.000856377
0.000466127
0.00202822
0.00546135
0.00291344
0.00384803
0.00420856
0.00421237
0.00404819
0.0038705
0.00382073
0.00395797
0.00433815
0.00502403
0.00582743
0.00644206
0.00664929
0.00644804
0.00563623
0.00310865
0.00122841
0.00157323
0.00215483
0.00285294
0.00344919
0.00345756
0.000938583
0.000856354
0.00080016
0.000758754
0.000724066
0.000690059
0.000657862
0.000624024
0.000584732
0.000551018
0.000546679
0.00103147
0.000536343
0.0023654
0.00713663
0.00375258
0.00351046
0.00407561
0.00413829
0.0038839
0.00352683
0.00336392
0.00343249
0.00378848
0.00456689
0.00544447
0.00601383
0.0062747
0.00630352
0.00602731
0.00501422
0.00458314
0.00457811
0.0048033
0.00507021
0.00521773
0.00509159
0.00429369
0.00388692
0.00366077
0.00349834
0.00333713
0.00313498
0.00280082
0.00237644
0.00189859
0.00144223
0.00108191
0.0010152
0.000912094
0.000721703
0.000757445
0.000821506
0.00274593
0.00864156
0.00561315
0.00368329
0.00352717
0.00368963
0.0037287
0.00345876
0.0032706
0.00329255
0.00364254
0.00440878
0.00532305
0.00582328
0.00599237
0.00599769
0.0060021
0.00595954
0.00615895
0.00641704
0.00656659
0.00654407
0.00635432
0.00601856
0.00556191
0.00518753
0.00489287
0.00463473
0.00438645
0.00413159
0.00382203
0.00340895
0.00289504
0.00231849
0.00178807
0.00128117
0.001079
0.000962723
0.00121049
0.000852616
0.00129036
0.00405619
0.00526294
0.00455628
0.00382121
0.00351627
0.00348214
0.00346612
0.00333416
0.00325914
0.00350629
0.00425886
0.00551666
0.00588486
0.00595884
0.00597037
0.00624746
0.0067489
0.00719664
0.00740417
0.00733888
0.00704631
0.00659967
0.00606976
0.00553756
0.00509883
0.00475769
0.00447791
0.00423553
0.00402339
0.00383947
0.00363255
0.00328961
0.00282403
0.00234527
0.00187656
0.00157848
0.00145022
0.00136222
0.0010057
0.0010175
0.00205579
0.00295284
0.00357147
0.00383755
0.00378444
0.00362516
0.00345982
0.00326491
0.00325572
0.00376297
0.00472582
0.00587591
0.00609133
0.00611341
0.00630333
0.00686709
0.00730377
0.0075024
0.00742978
0.00709332
0.0065562
0.00591025
0.00525883
0.0047066
0.00430382
0.00401957
0.0038101
0.00365502
0.00355155
0.00350444
0.00350843
0.0034686
0.00320336
0.00295061
0.00281543
0.0028745
0.00296752
0.00361284
0.00152914
0.000265686
0.00129672
0.00209492
0.00260001
0.00282681
0.00288135
0.0029932
0.00352402
0.00454158
0.00553465
0.00620097
0.00625667
0.00643911
0.00667879
0.00690521
0.006962
0.00683332
0.00648454
0.00593299
0.00526421
0.00459751
0.00403928
0.00363491
0.00335991
0.0031648
0.00301488
0.00289273
0.00278859
0.00269474
0.0026039
0.00252429
0.0024585
0.00241586
0.00239319
0.00234288
0.00223268
0.00208333
0.0014328
0.00061695
0.000652723
0.0012142
0.00183736
0.00236592
0.0029167
0.00375805
0.00486308
0.005742
0.00606204
0.00609309
0.00621341
0.00624393
0.00616072
0.00597017
0.0057191
0.00537958
0.00492521
0.00438659
0.00385478
0.00341242
0.00308773
0.00286281
0.0027046
0.00258713
0.00249647
0.00242706
0.00237825
0.00235289
0.00235565
0.00237619
0.00240446
0.002434
0.00244791
0.00242331
0.00235335
0.00210149
0.00118604
0.00106648
0.00280599
0.00143992
0.0012737
0.00193781
0.00279233
0.00370102
0.00468117
0.00549913
0.00585037
0.0057034
0.00514841
0.00467033
0.00475808
0.00463167
0.00443384
0.00422989
0.00400148
0.00372389
0.00340873
0.00309147
0.00281001
0.00258696
0.00242151
0.00230401
0.00222557
0.00218062
0.0021652
0.00217462
0.00220161
0.00224853
0.00231743
0.00240201
0.00249425
0.00258118
0.00264699
0.00269895
0.00279574
0.00189247
0.00122919
0.000822158
0.00195895
0.00266725
0.0032198
0.00366936
0.00404293
0.00428449
0.004331
0.00412949
0.00367268
0.00287046
0.00170645
0.00085537
0.000833783
0.000812909
0.000792761
0.000773437
0.000753512
0.000733427
0.000715476
0.000702577
0.000695991
0.000695517
0.00070078
0.000711294
0.00072673
0.000746978
0.000772169
0.000802784
0.000839901
0.000883662
0.000933687
0.000990126
0.00105291
0.00112145
0.00119562
0.00123715
0.00112418
0.00105157
0.0011913
0.00215606
0.00551733
0.00516572
0.00417002
0.00362712
0.00348308
0.00349776
0.00340485
0.00328004
0.00332478
0.00382876
0.00474429
0.00160228
0.0025846
0.00329093
0.00375672
0.00383685
0.00370703
0.0035467
0.00335839
0.00321456
0.00343303
0.00421617
0.00520796
0.000840213
0.00172826
0.00238596
0.002743
0.00286648
0.00290965
0.00318631
0.00399566
0.00507822
0.00586798
0.000497738
0.000905932
0.00153438
0.00211222
0.00262168
0.00328765
0.00430505
0.00536246
0.00596769
0.00610233
0.00300007
0.00235184
0.00111122
0.00158046
0.00234798
0.00323473
0.00418958
0.00513551
0.00573108
0.00584528
0.00543558
0.00498676
0.00207078
0.00230243
0.00300586
0.00345064
0.0038689
0.0041834
0.00433672
0.00426196
0.00393487
0.00332597
0.00230773
0.00122805
0.00134665
0.00270698
0.00402539
0.00439382
0.00416616
0.00381831
0.00360441
0.00349222
0.00333259
0.00325652
0.00359051
0.00443959
0.00107478
0.00117966
0.00159292
0.00234127
0.00296202
0.0032547
0.00329678
0.00321832
0.00311643
0.00330633
0.00406539
0.00510452
0.000465285
0.000747024
0.00147037
0.00207465
0.00245408
0.00270107
0.00313019
0.00405044
0.00516228
0.00590723
0.000488165
0.00077315
0.00133303
0.00202105
0.00277066
0.00369775
0.00475799
0.0056087
0.00599322
0.00583738
0.00107631
0.00265314
0.00227802
0.00235357
0.00303176
0.00378807
0.00450897
0.00511784
0.00543313
0.0053152
0.00473441
0.00391898
0.000984217
0.000898321
0.000952263
0.000988548
0.000980849
0.000932678
0.000851305
0.000744353
0.000630829
0.000526392
0.000434273
0.000399259
0.00186463
0.00359267
0.00432742
0.0043267
0.00398349
0.00368936
0.00355022
0.00341642
0.00326606
0.00335334
0.00396798
0.00493284
0.00109549
0.0011978
0.0019625
0.00268938
0.00314786
0.00329831
0.00326549
0.00315637
0.00314892
0.00361745
0.00458811
0.00553545
0.000449473
0.00110668
0.0017997
0.00229042
0.00258189
0.00286185
0.00353261
0.00462143
0.00560085
0.00608892
0.000549223
0.00102923
0.00166848
0.0023845
0.00320256
0.00424193
0.00522453
0.0058756
0.00595681
0.00578825
0.00291387
0.00259637
0.00219197
0.00267408
0.00340789
0.00415459
0.0048374
0.0053241
0.0054297
0.00508309
0.0043079
0.00379121
0.000875222
0.000928852
0.000972553
0.000990766
0.000961134
0.000895883
0.000800095
0.000686975
0.000577427
0.000477485
0.000405454
0.000409211
)
;

boundaryField
{
    floor
    {
        type            nutkWallFunction;
        Cmu             0.09;
        kappa           0.41;
        E               9.8;
        value           nonuniform List<scalar> 
36
(
0.000132043
5.85302e-05
6.93734e-05
7.87459e-05
8.15514e-05
7.98458e-05
7.44247e-05
6.84762e-05
6.31172e-05
5.84375e-05
5.43414e-05
5.07395e-05
4.7569e-05
4.47415e-05
4.21543e-05
3.96915e-05
3.72178e-05
3.59081e-05
3.25445e-05
3.25444e-05
4.57226e-05
5.53708e-05
6.4342e-05
8.73845e-05
9.17402e-05
9.94873e-05
0.000132043
0.0001577
0.000130776
0.000107019
5.85301e-05
0.000107019
5.84247e-05
0.000127206
9.36816e-05
0.000147261
)
;
    }
    ceiling
    {
        type            nutkWallFunction;
        Cmu             0.09;
        kappa           0.41;
        E               9.8;
        value           nonuniform List<scalar> 
58
(
0.000105915
0.000112294
0.000117461
0.000119608
0.00011612
0.000108385
9.69049e-05
8.31302e-05
6.9526e-05
5.68358e-05
4.74852e-05
4.79773e-05
0.000103553
0.000100964
9.84517e-05
9.60201e-05
9.36811e-05
9.12622e-05
8.88161e-05
8.66231e-05
8.50434e-05
8.42355e-05
8.41773e-05
8.4823e-05
8.61113e-05
8.79988e-05
9.04674e-05
9.35275e-05
9.72307e-05
0.000101698
0.000106936
0.000112887
0.000119557
0.000126925
0.000134912
0.000143494
0.000148272
0.00013523
0.00012677
0.000142999
0.000131934
0.00014378
5.8316e-05
9.95598e-05
0.000108668
0.000115065
0.000119346
0.000118443
0.000112755
0.000103062
9.01487e-05
7.61936e-05
6.30828e-05
5.12495e-05
4.66715e-05
0.000122818
0.00014169
7.45146e-05
)
;
    }
    sWall
    {
        type            nutkWallFunction;
        Cmu             0.09;
        kappa           0.41;
        E               9.8;
        value           nonuniform List<scalar> 4(0.000129635 0.000118845 0.000128488 9.95628e-05);
    }
    nWall
    {
        type            nutkWallFunction;
        Cmu             0.09;
        kappa           0.41;
        E               9.8;
        value           nonuniform List<scalar> 6(9.94883e-05 0.000103225 0.000121394 0.000142401 0.000147371 0.000143009);
    }
    sideWalls
    {
        type            empty;
    }
    glass1
    {
        type            nutkWallFunction;
        Cmu             0.09;
        kappa           0.41;
        E               9.8;
        value           nonuniform List<scalar> 10(0.000119951 0.000162442 0.000199635 0.000236853 0.000273303 0.000313783 0.000160945 0.000129589 0.000154522 0.000122864);
    }
    glass2
    {
        type            nutkWallFunction;
        Cmu             0.09;
        kappa           0.41;
        E               9.8;
        value           nonuniform List<scalar> 2(0.000181484 0.000170632);
    }
    sun
    {
        type            nutkWallFunction;
        Cmu             0.09;
        kappa           0.41;
        E               9.8;
        value           nonuniform List<scalar> 
14
(
0.000119872
0.000129178
0.000131262
0.000137214
0.000142734
0.000147935
0.00015306
0.000158404
0.000163795
0.000168798
0.000172773
0.000174351
0.000171327
0.000160897
)
;
    }
    Table_master
    {
        type            nutkWallFunction;
        Cmu             0.09;
        kappa           0.41;
        E               9.8;
        value           nonuniform List<scalar> 9(0.000101027 8.82843e-05 7.75858e-05 6.88232e-05 6.16705e-05 5.58113e-05 5.09984e-05 4.70637e-05 4.39613e-05);
    }
    Table_slave
    {
        type            nutkWallFunction;
        Cmu             0.09;
        kappa           0.41;
        E               9.8;
        value           nonuniform List<scalar> 9(0.000113464 0.00010367 9.69134e-05 9.18997e-05 8.76744e-05 8.35087e-05 7.9542e-05 7.53479e-05 7.04432e-05);
    }
    inlet
    {
        type            calculated;
        value           uniform 0.000167705;
    }
    outlet
    {
        type            calculated;
        value           nonuniform List<scalar> 4(0.00300007 0.00235184 0.00107631 0.00280599);
    }
}


// ************************************************************************* //
