/*--------------------------------*- C++ -*----------------------------------*\
  =========                 |
  \\      /  F ield         | OpenFOAM: The Open Source CFD Toolbox
   \\    /   O peration     | Website:  https://openfoam.org
    \\  /    A nd           | Version:  6
     \\/     M anipulation  |
\*---------------------------------------------------------------------------*/
FoamFile
{
    version     2.0;
    format      ascii;
    class       volScalarField;
    location    "9000";
    object      T;
}
// * * * * * * * * * * * * * * * * * * * * * * * * * * * * * * * * * * * * * //

dimensions      [0 0 0 1 0 0 0];

internalField   nonuniform List<scalar> 
662
(
302.568
302.276
302.262
302.257
302.252
302.247
302.242
302.236
302.227
302.214
302.196
302.177
302.168
302.173
302.208
302.364
302.341
302.333
302.34
302.347
302.353
302.358
302.364
302.369
302.374
302.379
302.384
302.389
302.394
302.399
302.405
302.412
302.437
302.781
302.329
302.307
302.313
302.319
302.322
302.322
302.318
302.305
302.277
302.231
302.181
302.153
302.154
302.171
302.184
302.196
302.22
302.37
302.32
302.316
302.324
302.334
302.338
302.34
302.341
302.343
302.344
302.345
302.347
302.348
302.351
302.356
302.363
302.374
302.418
303.005
302.394
302.357
302.378
302.402
302.423
302.439
302.445
302.433
302.385
302.295
302.195
302.143
302.145
302.166
302.181
302.191
302.212
302.324
302.306
302.309
302.326
302.345
302.345
302.345
302.344
302.344
302.344
302.344
302.344
302.344
302.344
302.349
302.354
302.365
302.412
303.224
302.475
302.404
302.433
302.477
302.525
302.569
302.598
302.595
302.527
302.376
302.208
302.13
302.136
302.167
302.19
302.199
302.21
302.221
302.242
302.274
302.31
302.345
302.376
302.4
302.417
302.431
302.442
302.452
302.459
302.464
302.468
302.47
302.438
302.405
302.386
302.414
303.425
302.586
302.464
302.475
302.523
302.585
302.655
302.721
302.745
302.661
302.442
302.208
302.114
302.128
302.174
302.211
302.228
302.237
302.254
302.283
302.32
302.361
302.4
302.434
302.462
302.484
302.5
302.513
302.521
302.526
302.525
302.52
302.51
302.485
302.448
302.413
302.416
302.515
302.593
302.595
303.584
302.801
302.627
302.572
302.581
302.621
302.685
302.777
302.831
302.722
302.452
302.193
302.087
302.12
302.192
302.25
302.282
302.298
302.322
302.355
302.394
302.434
302.471
302.503
302.529
302.548
302.562
302.572
302.577
302.578
302.571
302.56
302.544
302.519
302.485
302.446
302.431
302.473
302.503
302.546
304.839
303.536
303.134
302.914
302.795
302.749
302.766
302.836
302.897
302.792
302.479
302.153
302.03
302.123
302.233
302.315
302.361
302.387
302.414
302.445
302.48
302.515
302.546
302.572
302.592
302.607
302.616
302.622
302.623
302.619
302.61
302.594
302.574
302.549
302.518
302.484
302.462
302.47
302.484
302.515
307.14
305.005
304.26
303.826
303.494
303.264
303.137
303.079
302.948
302.623
302.199
301.94
302.007
302.172
302.32
302.413
302.46
302.484
302.508
302.535
302.564
302.591
302.614
302.632
302.645
302.652
302.656
302.657
302.655
302.649
302.64
302.626
302.605
302.583
302.56
302.536
302.522
302.528
302.551
302.718
293.651
299.526
301.634
302.387
302.602
302.572
302.315
301.924
301.689
301.746
302.1
302.312
302.461
302.523
302.552
302.573
302.592
302.613
302.634
302.653
302.667
302.677
302.682
302.685
302.685
302.683
302.68
302.676
302.673
302.671
302.673
302.678
302.693
302.718
302.754
302.793
302.826
302.904
295.441
295.3
297.703
299.523
300.47
300.81
300.919
301.115
301.469
301.888
302.365
302.508
302.577
302.611
302.631
302.646
302.661
302.675
302.687
302.697
302.704
302.708
302.71
302.711
302.711
302.711
302.711
302.711
302.713
302.715
302.719
302.727
302.74
302.761
302.786
302.813
302.837
302.887
299.808
297.751
295.633
295.668
297.364
298.906
299.827
300.414
300.934
301.465
301.982
302.348
302.581
302.633
302.662
302.679
302.691
302.7
302.709
302.716
302.722
302.726
302.728
302.73
302.731
302.731
302.732
302.733
302.733
302.735
302.736
302.738
302.741
302.747
302.757
302.77
302.787
302.807
302.834
302.862
300.068
298.945
298.445
298.497
299.264
300.066
300.737
301.337
301.867
302.262
302.519
302.655
302.714
302.727
302.736
302.744
302.749
302.754
302.757
302.76
302.761
302.762
302.762
302.761
302.761
302.76
302.759
302.758
302.758
302.757
302.756
302.757
302.758
302.76
302.764
302.772
302.783
302.792
302.853
302.959
303.791
303.327
303.007
302.842
302.759
302.746
302.791
302.877
302.872
302.652
302.299
302.064
305.817
304.551
304.028
303.648
303.366
303.188
303.106
303.033
302.811
302.407
302.036
301.92
297.555
300.834
302.112
302.536
302.611
302.476
302.118
301.772
301.684
301.856
294.389
296.495
298.731
300.091
300.698
300.863
300.997
301.275
301.68
302.073
299.104
296.51
295.128
296.482
298.205
299.427
300.144
300.672
301.198
301.727
302.191
302.459
299.279
298.653
298.358
298.846
299.681
300.414
301.043
301.615
302.083
302.406
302.6
302.688
304.003
304.01
303.626
303.339
303.121
302.983
302.931
302.95
302.944
302.748
302.373
302.057
307.226
305.047
304.467
303.939
303.578
303.336
303.179
303.061
302.793
302.359
301.96
301.823
295.334
296.467
299.261
300.843
301.523
301.678
301.573
301.427
301.487
301.759
293.948
295.177
297.167
298.869
299.871
300.361
300.704
301.153
301.661
302.11
299.833
298.168
296.935
296.935
298.183
299.349
300.161
300.799
301.391
301.888
302.283
302.52
299.87
299.87
299.942
300.092
300.526
301.04
301.542
301.995
302.341
302.556
302.671
302.71
304.3
303.802
303.472
303.22
303.04
302.946
302.934
302.962
302.876
302.571
302.19
301.992
305.844
304.819
304.178
303.741
303.444
303.249
303.121
302.952
302.589
302.137
301.852
301.862
294.891
298
300.196
301.267
301.651
301.651
301.485
301.424
301.605
301.923
294.479
296.139
298.103
299.451
300.16
300.525
300.916
301.404
301.902
302.278
298.922
297.472
296.645
297.524
298.81
299.789
300.49
301.101
301.654
302.1
302.424
302.575
299.852
299.9
299.996
300.285
300.782
301.294
301.778
302.185
302.463
302.624
302.698
302.714
)
;

boundaryField
{
    floor
    {
        type            wallHeatTransfer;
        Tinf            uniform 305.2;
        alphaWall       uniform 0.24;
        value           nonuniform List<scalar> 
36
(
302.519
302.889
302.815
302.77
302.766
302.778
302.804
302.834
302.864
302.893
302.921
302.948
302.973
302.997
303.021
303.046
303.072
303.089
303.141
303.141
303.013
302.945
302.9
302.896
302.95
302.931
302.519
302.457
302.511
302.584
302.889
302.584
302.894
302.532
302.712
302.505
)
;
    }
    ceiling
    {
        type            wallHeatTransfer;
        Tinf            uniform 303.2;
        alphaWall       uniform 0.24;
        value           nonuniform List<scalar> 
58
(
300.07
300.106
300.189
300.457
300.929
301.417
301.878
302.265
302.529
302.684
302.757
302.771
302.775
302.787
302.797
302.804
302.81
302.815
302.819
302.822
302.825
302.825
302.825
302.825
302.824
302.822
302.82
302.818
302.816
302.813
302.811
302.809
302.807
302.807
302.809
302.813
302.823
302.833
302.89
302.983
305.698
304.735
294.876
300.282
300.083
300.141
300.276
300.686
301.175
301.653
302.085
302.413
302.618
302.73
302.768
306.908
304.951
296.097
)
;
    }
    sWall
    {
        type            wallHeatTransfer;
        Tinf            uniform 315.2;
        alphaWall       uniform 0.36;
        value           nonuniform List<scalar> 4(301.079 301.202 301.065 301.577);
    }
    nWall
    {
        type            wallHeatTransfer;
        Tinf            uniform 307.2;
        alphaWall       uniform 0.36;
        value           nonuniform List<scalar> 6(303.434 303.373 303.257 303.493 303.456 303.554);
    }
    sideWalls
    {
        type            empty;
    }
    glass1
    {
        type            wallHeatTransfer;
        Tinf            uniform 315.2;
        alphaWall       uniform 4.3;
        value           nonuniform List<scalar> 10(311.395 310.724 310.265 309.891 309.589 309.285 309.279 311.376 309.819 311.428);
    }
    glass2
    {
        type            wallHeatTransfer;
        Tinf            uniform 307.2;
        alphaWall       uniform 4.3;
        value           nonuniform List<scalar> 2(305.464 305.593);
    }
    sun
    {
        type            wallHeatTransfer;
        Tinf            uniform 305.2;
        alphaWall       uniform 0.24;
        value           nonuniform List<scalar> 
14
(
302.863
302.586
302.569
302.554
302.541
302.528
302.515
302.502
302.487
302.469
302.447
302.429
302.423
302.442
)
;
    }
    Table_master
    {
        type            zeroGradient;
    }
    Table_slave
    {
        type            zeroGradient;
    }
    inlet
    {
        type            fixedValue;
        value           uniform 293.15;
    }
    outlet
    {
        type            zeroGradient;
    }
}


// ************************************************************************* //
