/*--------------------------------*- C++ -*----------------------------------*=========                 |
  \      /  F ield         | OpenFOAM: The Open Source CFD Toolbox
   \    /   O peration     | Website:  https://openfoam.org
    \  /    A nd           | Version:  6
     \/     M anipulation  |
\*---------------------------------------------------------------------------*/
FoamFile
{
    version     2.0;
    format      ascii;
    class       volScalarField;
    location    "410";
    object      PMV;
}
// * * * * * * * * * * * * * * * * * * * * * * * * * * * * * * * * * * * * * //

dimensions      [0 0 0 0 0 0 0];

internalField   nonuniform List<scalar> 
458
(
1.3262807555332827
1.0802467667005535
1.0465753065208045
1.0177409745835884
0.999991058685113
0.9917142110196943
0.9948608355441093
1.0099342581222552
1.0397962623499124
1.089769460233305
1.1618599329352792
1.2281237577619517
1.243880782381112
1.251997721544072
1.2639339904063125
1.3846973721527642
1.3708582122959732
1.3670403487415053
1.3741987851780115
1.379448146771414
1.3837429777555545
1.3785188138120208
1.3750083728253413
1.3758499228496066
1.37810384142514
1.3809806021246567
1.3846057069707711
1.3893252451426374
1.3961301447828132
1.4072917464025352
1.4185753281294542
1.423346378811879
1.4376587680759565
1.2584493307241416
1.0926532603589094
1.0801531968603484
1.0518515358856693
1.0352752151150182
1.0272231030582522
1.0289102071991212
1.037431520416532
1.0519291028722164
1.0766324974808332
1.11822550180662
1.1809795393307154
1.2414934058208873
1.251520260641347
1.2509601668536205
1.2111891856556347
1.2143629626695824
1.2392805970351102
1.3410390199273092
1.357018127247709
1.357018127247709
1.365131390789485
1.3679397902896175
1.3677315381538429
1.3682555473624713
1.3698230589069322
1.3709820132404236
1.371716112027491
1.3726211704897453
1.3743541320206814
1.3759347439852834
1.37950745421515
1.388543211385477
1.3985355719378556
1.405692873103224
1.3914628202698587
1.2895987422282251
1.0846236399479754
1.1136791126730767
1.0990781453337257
1.0926258160912135
1.089364551062071
1.0892107830817157
1.0846959640770781
1.0703550185238837
1.0579651964252075
1.0705181748254626
1.1221851283129696
1.2164845003832423
1.2586820926931035
1.2648888705251948
1.2669601217213928
1.2627861336884787
1.2485545421590785
1.2497616806875058
1.3100527921241671
1.3188957448543288
1.3282769034025097
1.3401599913982343
1.3450199054180159
1.3681984975469141
1.3842201755241754
1.3846973721527642
1.385174567639826
1.3856517619838942
1.3866061472373765
1.3875605279016445
1.3885149039651763
1.3918551837889834
1.3956725766202431
1.389399864919891
1.3187114128334032
1.3637523660910063
1.0787062288155083
1.138031044072704
1.1498286137376066
1.1679397840485397
1.1803050177103673
1.1819077771562136
1.1539935168295463
1.0937593254644076
1.0401055070588063
1.030539987461203
1.0812058767271415
1.175388924387878
1.2663635465333287
1.2792116806248126
1.2806439205135847
1.2479265205937247
1.2234960197510458
1.176585961271055
1.241464058069015
1.2787848358283274
1.3072112464632164
1.3392760879787649
1.3755850133755683
1.403705609140888
1.399064002044179
1.3949483810237047
1.3949010333859913
1.3976646981669727
1.4012632384817114
1.4092261811544449
1.423175884750077
1.447165183489756
1.445314659970829
1.4285943888384829
1.370449993348422
1.2748035721749933
1.4572059959514625
1.0872564855079199
1.1562362985615295
1.1953135895712443
1.2525062230667354
1.300299398554403
1.3070541473453516
1.226588519133278
1.1121277603564759
1.0233957450762132
1.0010900534805947
1.0550476719880415
1.1523918299034024
1.2549967432731748
1.3002170879647885
1.3016492127116632
1.2834441664522276
1.2552752329272103
1.2549535670333551
1.2726234106132732
1.305836879856689
1.3483289883399028
1.391966005570496
1.4345537809790805
1.466279975664373
1.4780156787883407
1.480642691741888
1.4819449345188904
1.4813902603869424
1.4793938375941644
1.478274673085742
1.4778112715008014
1.477457407705666
1.4609579691186159
1.4326094338024635
1.3568213793206854
1.3550711083406914
1.3566280485207256
1.4419661288963705
1.320837842100138
1.5547639113842315
1.1175683663463731
1.1877355251700978
1.2279565554329015
1.315356466304568
1.3889920902679989
1.4096862417385032
1.2508808617875495
1.1080329368424497
1.0050038630439952
0.9805585016485435
1.039958441312977
1.149968887789897
1.2700356715876433
1.3298126367039784
1.3345857674747346
1.332199214437092
1.3336311492339892
1.3418809217269494
1.3640457845721723
1.4001668937904144
1.437181707154972
1.4667569540077758
1.4906040492508728
1.5092022185833216
1.522076500164683
1.5306587107084015
1.5359031362367253
1.5382869003577446
1.5378101508342448
1.5330425650221788
1.5263676706556049
1.5104189735822193
1.4793861133964332
1.4412965691246629
1.369254159399098
1.361504555187041
1.356127058085741
1.3812605007939778
1.3898865350889897
1.6469996887557172
1.205096939008871
1.3080691025855524
1.2883234700065394
1.345710077465954
1.4266860393397554
1.3452921884146078
1.2190202301015527
1.0748398646618333
0.974188423414706
0.9613772994745363
1.0420765500934255
1.1766095334513609
1.3218366458682436
1.3708582122959732
1.3808797672825106
1.3808797672825106
1.3870833381438905
1.4061700169229105
1.4333651729213506
1.463418076237387
1.4920347590399272
1.5168315609239529
1.5354263784701971
1.5487749683279142
1.5568788243126483
1.561645566357947
1.5635522145232141
1.562598893930265
1.5597388903331735
1.55306530652158
1.543531035574268
1.5325657974217257
1.5158026758490704
1.4706841781652475
1.4073710551384735
1.3770333700997825
1.3560589726830536
1.32867339391065
1.4341656982798416
1.7876001025207249
1.5767607595623594
1.5191712756411015
1.4043197471217392
1.3834729363359937
1.369375519151689
1.2898851342788729
1.1399925219090952
0.9900150934683811
0.9146732418810506
0.9459431823069874
1.0750781667321334
1.2519243045138129
1.385174567639826
1.4243005738626786
1.4357505165657367
1.439566998674765
1.4500618887557182
1.471049695786812
1.496803694650394
1.5215996954463251
1.5430543043400624
1.5597388903331735
1.57117852626384
1.5778511759780558
1.581187368596351
1.5816639602908196
1.5807107750854141
1.5778511759780558
1.5735616557071486
1.5673654268107726
1.5583088651015005
1.5478215411744782
1.5349496190603211
1.5206460812320037
1.5053873982885166
1.4952801924047168
1.467902176315275
1.38967547409427
1.3035838892678075
1.9972392155280296
1.8503650249697317
1.689802373627443
1.5481761860940852
1.4573523695249992
1.380766881835702
1.1690004878944684
0.9439657826016348
0.8200173950999532
0.8337997298216648
0.9670172714306428
1.1864292460965669
1.3775393036700045
1.4529240190287174
1.4810656448570272
1.4925116593276444
1.5015724797286776
1.5144474344554308
1.5325657974217257
1.5516352091052932
1.5683187122887798
1.581187368596351
1.5866525889007468
1.5825700832126244
1.5776600016024127
1.5712312973827738
1.5639184773317671
1.55525759519681
1.5449017963400324
1.5332581311511237
1.5198634362932086
1.5051911344644457
1.4909356108572756
1.473806854200318
1.4542163160054953
1.4359379833984651
1.4245528392581361
1.4203438582772858
1.4103742187637291
1.3793386009073616
-1.683341140455008
-0.7952858674715861
-0.25475923340130646
-0.06879235843295718
0.09173379533527456
0.3018343385317457
0.5705263583053902
0.8674460641649662
1.1775052665840007
1.3866061472373765
1.474977179848763
1.4878457447264397
1.4976219258828045
1.506528442899779
1.5181983776397703
1.5323431669895329
1.5454229978405318
1.555245577469766
1.559867438444173
1.5610649758238588
1.5584460198164278
1.5540576579583871
1.5477877484558724
1.540399587807611
1.5318471756597674
1.5233136433332157
1.5147588043445082
1.5072820028392233
1.5013855696556657
1.4972370807081277
1.4940425476881336
1.4917833364997712
1.4895017178466332
1.4899242054757287
1.5005750771827104
1.5368779385314426
1.6058355413919707
1.4541218526475062
-1.6933355490563675
-0.6145306252629946
-0.0318249041037687
0.2849067319446837
0.5164178310927605
0.793441606499533
1.090579630147201
1.3102417893419125
1.3911633082853407
1.439470216856654
1.4681438947699694
1.4844528596616549
1.4961991035382267
1.5055437492249586
1.5148727227187821
1.5229989131667707
1.5301561267716106
1.5349572651208843
1.537965285506244
1.5383711045643558
1.5376612533635425
1.5354550824904096
1.5323548219028158
1.5289878823624905
1.5255069028733068
1.5225768893626515
1.519924417446454
1.5185084605847852
1.5182822868918866
1.5205430246211835
1.526872162654769
1.537929606744583
1.5500945631294396
1.5599558244314045
1.5707391987475254
1.6059740789612538
1.5532863207241518
1.4964215351195473
-1.1268098341790875
-1.1272588626550388
-1.0032851892976178
-0.19219010999109737
0.4038807372317493
0.8322788065212897
1.1269784522562711
1.2687339748660753
1.3549513685740704
1.4074678943476313
1.4416429522040477
1.4656404080154057
1.4804001761851435
1.4893733995189804
1.49509080837376
1.4991707449238818
1.5014296015454807
1.5016397453058428
1.5000263733207266
1.4974333845598733
1.4944804673852607
1.491388040187635
1.4883344672502825
1.4859129552113626
1.4837011096732085
1.4823604494524207
1.4826371980654134
1.4838563547243262
1.487040226628333
1.4934210414557856
1.5025413724643888
1.5160871694144593
1.5391119513038771
1.5794270959094203
1.6340761575611604
1.6397925655572774
1.6114854345590557
1.5540137528418203
1.5036613393456715
1.5166174234914078
)
;

boundaryField
{
    ".*"
    {
        type            zeroGradient;
    }
}


// ************************************************************************* //
