/*--------------------------------*- C++ -*----------------------------------*=========                 |
  \      /  F ield         | OpenFOAM: The Open Source CFD Toolbox
   \    /   O peration     | Website:  https://openfoam.org
    \  /    A nd           | Version:  6
     \/     M anipulation  |
\*---------------------------------------------------------------------------*/
FoamFile
{
    version     2.0;
    format      ascii;
    class       volScalarField;
    location    "410";
    object      PPD;
}
// * * * * * * * * * * * * * * * * * * * * * * * * * * * * * * * * * * * * * //

dimensions      [0 0 0 0 0 0 0];

internalField   nonuniform List<scalar> 
458
(
41.622406264272634
29.61472177849042
28.118719002481967
26.870233434326195
26.117057227317915
25.76992058759923
25.901584997064305
26.537514203393442
27.82245243850835
30.045053646276585
33.40141901794959
36.62872376098213
37.414344336070904
37.8215915850522
38.423520813852946
44.69187426675553
43.95922234062675
43.7576654933616
44.13578451852459
44.413608816000206
44.6412482708415
44.36439054584995
44.17860251461957
44.22312251134347
44.34241780830648
44.49479962799356
44.68701124558855
44.937563868410656
45.299429131085944
45.89445369261058
46.497749722262114
46.75334768368605
47.52178506998371
38.146490930032215
30.175991483364484
29.610508980441466
28.350461240428487
27.62579973541726
27.277414751646504
27.35021158524927
27.71949957624848
28.35387563263407
29.452218734743255
31.349463517060045
34.31937275468148
37.294889996100686
37.797589098388585
37.76944002040169
35.79191270565886
35.94813636511539
37.18430415170833
42.391895509388846
43.229770413716466
43.229770413716466
43.65697980481054
43.80512729923783
43.79413699351966
43.82179249687246
43.904548766548295
43.96576233920707
44.00454770833354
44.05237808849465
44.143999755879825
44.22761040256936
44.416750266790466
44.89602292200073
45.427509367418054
45.809108278977625
45.05115812630244
39.72959111025832
29.812122633525235
31.139228371321238
30.468736565603308
30.17474403885106
30.026691832729867
30.01972024678156
29.815390109008845
29.171062907997353
28.62023986970435
29.178352788991077
31.53312430978552
36.052722708577235
38.15823239983311
38.47182842575208
38.57669106894032
38.36548044680486
37.648630421794074
37.70923383910116
40.78142945971672
41.239009361795496
41.726229802244646
42.34594320459418
42.600187158476714
43.818781364043105
44.66655949052198
44.69187426675553
44.717192590567265
44.7425144529781
44.793168757662464
44.84383710887076
44.89451943457648
45.07201658162848
45.27507501977956
44.94152810038141
41.22945416580158
43.584284270530326
29.545401002800006
32.273257167426806
32.8295620205415
33.69210967320234
34.28679976154844
34.36422009293722
33.027009628210436
30.22628779883506
27.835931013887347
27.420634729454434
29.657921428398467
34.049811996944825
38.54647698964491
39.19910011829648
39.27209702039001
37.61711599314847
36.39926142201627
34.10744992183909
37.29342248830878
39.17735457325509
40.634749650002306
42.29975114872922
44.20910690312779
45.703081468983605
45.455657784949736
45.236536033664706
45.234016642818915
45.381128624366895
45.572850555727534
45.9977585805514
46.744208860228596
48.03349088815218
47.9338049877103
47.03482873584935
43.937659313064174
38.97473948595487
48.57499428278559
29.931186752492195
33.13356007526983
35.01476315647783
37.847160941276606
40.278700756355775
40.626645360899275
36.55253555403308
31.06764810453258
27.112658602841833
26.163345539648162
28.49133021450244
32.9510130283564
37.97248901063654
40.274467081540394
40.34815047589805
39.41495727890082
37.98651300228531
37.97031494760088
38.86394796032197
40.563868335445584
42.77355742770047
45.07790840914811
47.354870580688534
49.06519516611096
49.700258443832084
49.84256788856998
49.91313181669009
49.88307443908009
49.774908900299394
49.714286217536056
49.68918760608269
49.670022872298816
48.77759350505651
47.25040547302192
43.219425113405485
43.127424117412986
43.20926017236704
47.75351639273747
41.339724817127774
53.872982444948185
31.31903361092874
34.64637113708521
36.62042301996956
41.05566924012417
44.919865815329224
46.02233488880913
37.76545497387878
30.879097954683033
26.328561634832965
25.306183955135083
27.82952064915885
32.836203160765706
38.73259380004553
41.80616127897594
42.05489423606882
41.930471522929935
42.005111721025095
42.435920950685556
43.59974909341361
45.514419801958134
47.496132560165876
49.090983532566085
50.382648739710625
51.3926845990458
52.09289355746661
52.56001651199056
52.84557457430859
52.97539256292544
52.949428125959265
52.68980798239375
52.32642835613823
51.45883009441351
49.774490464502364
47.71748124085743
43.874509040912635
43.465862066082664
43.18292226023255
44.50963300617633
44.96738493030026
58.888063461201774
35.49282947437328
40.679013458187356
39.66432439009251
42.636329745374574
46.93243355056779
42.61444485993669
36.17789211212987
29.37178894317222
25.04353108709202
24.520063930395636
27.921921828300114
34.10858536851383
41.3915525178855
43.95922234062675
44.48945614201345
44.48945614201345
44.81850118195108
45.83457372750582
47.2910042534209
48.91050592959053
50.460274475048216
51.80754559457681
52.8196122876009
53.54669254094028
53.98821319269159
54.24793310230463
54.35181840145379
54.29987602682209
54.14404594216543
53.78043599012157
53.261025388346255
52.663848619911654
51.75158275521914
49.30338842423914
45.8986880043824
44.285749519322216
43.17934324681575
41.74686167815242
47.334016293101115
66.36741258227173
55.07143254276797
51.93482304745901
45.73584168279702
44.62692651202612
43.88091676290516
39.74425343650499
32.36544060812068
25.698981411541723
22.666465722256916
23.897945424622122
29.382474308101706
37.81790044966269
44.717192590567265
46.804501204296805
47.41919023044937
47.62442018686038
48.189605812972296
49.32316423897966
50.71911608934532
52.066948867932474
53.23505713992787
54.14404594216543
54.76732743157862
55.130830352549786
55.31254855138457
55.338506171239025
55.286590379480465
55.130830352549786
54.89715880747312
54.55958070674247
54.06612975788871
53.49475113418152
52.79365046222602
52.01506178572121
51.185350302296456
50.63641013001858
49.15290940244485
44.956170791599355
40.447762695188715
76.62575046776502
69.57977855247636
61.19549862997688
53.51407157713128
48.58289565488017
44.48347425978127
33.74294059039981
23.818918479483628
19.181382702601596
19.665726826474852
24.749728320579877
34.58303983647883
44.31253013282992
48.34394208706872
49.86548483006679
50.48615252424562
50.97808711953151
51.67787576102581
52.663848619911654
53.70252046508882
54.611519060810515
55.31254855138457
55.61018255171856
55.38785696971446
55.12041672845268
54.770202436086514
54.37177443750384
53.89988054670828
53.33569478693571
52.701545470124664
51.97247990337171
51.17468544808288
50.400637014805774
49.47237227158153
48.41365439090692
47.429267307568544
46.818026829745335
46.59246055446319
46.0590918653815
44.40780644123177
60.84848874010585
18.33230088595073
6.347270386969029
5.097983518319367
5.174261895672913
6.893193680004671
11.818161404416742
20.881433244213497
34.15174429018947
44.793168757662464
49.53572516623257
50.23303045340837
50.76354100668563
51.24735794309051
51.881895951370154
52.6517268978603
53.364086938161336
53.8992257656383
54.151050012436826
54.21629904878596
54.073602737572514
53.834502844632716
53.49291017327129
53.090458177361825
52.624721780680545
52.16021493000871
51.69480940816505
51.28831223699657
50.96793441644566
50.74264578221551
50.56923300507529
50.44663212266689
50.32284899574176
50.345767325929344
50.92391184002388
52.8986600092627
56.65417535853149
48.40855804993029
61.38502927601242
12.921525668555333
5.020966924565428
6.686124192141648
10.576534974290368
18.27001951208183
30.081810184012582
40.791191652751515
45.03523733970155
47.619213742230365
49.1659813611175
50.04906265927066
50.68629311435663
51.193846459854264
51.701004890399815
52.14308779584696
52.53265484113485
52.79406682231733
52.95787691999738
52.97997849130733
52.94131906603336
52.8211753761849
52.65236147812142
52.46905616253839
52.27957842052406
52.12012246654347
51.97579766025086
51.89876451158015
51.88646058932114
52.009454581459906
52.353888020397676
52.95593381322394
53.61858396209206
54.15586581064677
54.7433924770526
56.66170990847354
53.79247757489251
50.698368564749096
31.748288295524446
31.769216699446176
26.25593886320864
5.765853490223378
8.399040070065354
19.6118871606821
31.756146504359705
38.66658116523983
43.12113216768955
45.90385839128393
47.73612267412444
49.03061938348921
49.829428233886944
50.31588845689094
50.626130087213774
50.84764325332452
50.97032615164256
50.981740942938366
50.89411065371648
50.75330401737543
50.593001402037615
50.42518391791728
50.25953639587898
50.12822150436805
50.008312611122875
49.935649756608946
49.95064826073968
50.01672763186374
50.18934664236014
50.53550239851867
51.03071919284822
51.767056403680506
53.02032712503481
55.21667125785935
58.1879555650013
58.49779248148414
56.9613805999047
53.83211072291192
51.09156434686567
51.7958979208559
)
;

boundaryField
{
    ".*"
    {
        type            zeroGradient;
    }
}


// ************************************************************************* //
