/*--------------------------------*- C++ -*----------------------------------*\
  =========                 |
  \\      /  F ield         | OpenFOAM: The Open Source CFD Toolbox
   \\    /   O peration     | Website:  https://openfoam.org
    \\  /    A nd           | Version:  6
     \\/     M anipulation  |
\*---------------------------------------------------------------------------*/
FoamFile
{
    version     2.0;
    format      ascii;
    class       volScalarField;
    location    "7200";
    object      nut;
}
// * * * * * * * * * * * * * * * * * * * * * * * * * * * * * * * * * * * * * //

dimensions      [0 2 -1 0 0 0 0];

internalField   nonuniform List<scalar> 
662
(
0.000999746
0.0010801
0.00109898
0.00115058
0.00119863
0.00124413
0.00128918
0.00133642
0.00138418
0.00142862
0.00146382
0.00147727
0.00144927
0.00135527
0.0011005
0.000496037
0.00058209
0.000658872
0.000683459
0.000670096
0.000625673
0.000577279
0.00053415
0.00049689
0.0004646
0.00043647
0.000411878
0.000390143
0.000370421
0.000351794
0.000333218
0.000322934
0.000297588
0.00136408
0.00286472
0.00255532
0.00292068
0.00326759
0.00362818
0.00397761
0.00427228
0.00456137
0.00491193
0.00530961
0.00569889
0.00597388
0.00598004
0.00519279
0.00133136
0.00109647
0.000892637
0.000494133
0.00116258
0.0016872
0.00209097
0.00221428
0.0016176
0.00136345
0.00119018
0.00106215
0.000964024
0.0008861
0.00081997
0.000758146
0.000696691
0.000641584
0.000594942
0.000733293
0.000393846
0.00169325
0.00398798
0.0029383
0.00372783
0.00405251
0.00425531
0.00436803
0.00443629
0.0045518
0.0047979
0.005205
0.00577021
0.00636948
0.00676568
0.00660695
0.00546043
0.00425214
0.0010682
0.000775513
0.0013199
0.00190263
0.00247959
0.00263971
0.000847132
0.000740083
0.000651494
0.000579929
0.000522248
0.000475533
0.000437522
0.000406737
0.000382676
0.000421238
0.00048614
0.000864524
0.000467227
0.00203063
0.00548361
0.0029416
0.00385241
0.00420452
0.00420738
0.00404564
0.00387455
0.00383336
0.00397962
0.0043738
0.00507005
0.00588195
0.00647955
0.0066788
0.0064755
0.00566191
0.00313196
0.00124214
0.00157894
0.00216325
0.00287117
0.00347842
0.00349346
0.00095506
0.000871199
0.000813389
0.000770429
0.000734267
0.000699265
0.000666072
0.000631222
0.00059086
0.000555586
0.00055133
0.00104262
0.000537381
0.00236789
0.00716836
0.00379465
0.00353068
0.00408094
0.00414199
0.00389124
0.00354123
0.00338924
0.00346386
0.00384091
0.00462861
0.00550784
0.006069
0.00631976
0.00634219
0.00606137
0.00504922
0.00460316
0.00460962
0.00484486
0.00512036
0.00527416
0.0051514
0.00435204
0.00393865
0.00370678
0.00354004
0.00337434
0.00316019
0.00282018
0.00239095
0.00190865
0.00144845
0.0010873
0.00102804
0.000915557
0.000722542
0.000758665
0.000822946
0.00274764
0.00867496
0.00566013
0.0037279
0.00356055
0.00371385
0.00375396
0.00348586
0.00330914
0.00333379
0.00369943
0.00448608
0.00540705
0.00589887
0.00605753
0.00605841
0.00606157
0.00601801
0.00621298
0.00647951
0.00663725
0.00662195
0.00643813
0.00610752
0.00565479
0.00528259
0.00498834
0.00472812
0.00447468
0.00421029
0.00388296
0.00345318
0.00292438
0.00233652
0.00180044
0.00129709
0.00108966
0.000968992
0.00121634
0.000854379
0.00129126
0.00406603
0.00528754
0.00459361
0.00386971
0.0035684
0.00353407
0.00351178
0.00337344
0.00329636
0.00356364
0.00435025
0.00562967
0.00598413
0.00604738
0.00606278
0.00634506
0.00683881
0.00728693
0.0074984
0.00743941
0.00715465
0.00671746
0.00619827
0.00567415
0.00523622
0.00488886
0.00459854
0.00434338
0.00411763
0.00391975
0.00369447
0.00333589
0.00285754
0.0023704
0.0018983
0.00159666
0.00146473
0.00137343
0.00100956
0.00101822
0.00205781
0.00295746
0.00357661
0.00384772
0.00380433
0.00365308
0.00348409
0.00328335
0.00329076
0.00384572
0.00485473
0.00601759
0.00621235
0.00622752
0.00643963
0.00700172
0.00742729
0.00762409
0.0075562
0.00722784
0.00670062
0.0060637
0.00541523
0.00485549
0.0044372
0.00413481
0.00390766
0.00373664
0.00361957
0.00356144
0.003556
0.00350551
0.00323407
0.0029775
0.00284002
0.00289692
0.00298787
0.00363263
0.00153262
0.000264314
0.0012891
0.00208117
0.00258339
0.00281053
0.0028704
0.00300715
0.00360343
0.00468764
0.00570895
0.00635927
0.00639331
0.0065805
0.00683552
0.00705936
0.00711102
0.00698444
0.00664372
0.00609781
0.00542863
0.00475169
0.00417347
0.00374513
0.003448
0.00323462
0.00307003
0.00293624
0.00282294
0.00272192
0.00262536
0.00254211
0.00247398
0.00242949
0.0024052
0.00235336
0.00224175
0.00209099
0.00143574
0.000621686
0.000649164
0.00120254
0.00182174
0.00236128
0.00295817
0.00388302
0.00504639
0.00592873
0.0062404
0.00626395
0.00635144
0.00638906
0.00631502
0.0061304
0.00588566
0.00554582
0.00508575
0.00453886
0.00398615
0.00351819
0.00316947
0.00292527
0.0027526
0.00262434
0.00252563
0.00245036
0.00239751
0.00236964
0.00237106
0.00239037
0.00241786
0.00244672
0.00245976
0.00243407
0.00236297
0.00210931
0.00118845
0.00107067
0.00285546
0.00147157
0.00129697
0.00197215
0.00285856
0.00382186
0.00485562
0.00568001
0.00600501
0.00583335
0.00529514
0.00480871
0.00486279
0.00473519
0.00454525
0.00434795
0.00411863
0.00383523
0.00351063
0.00318201
0.00288522
0.00264854
0.00247249
0.00234685
0.00226186
0.00221131
0.00219098
0.00219609
0.00221935
0.00226461
0.00233221
0.00241599
0.00250786
0.00259461
0.0026602
0.00271192
0.00280905
0.00189997
0.00123199
0.000823709
0.00198437
0.00270661
0.00327433
0.00373445
0.00411791
0.00436287
0.00440161
0.00418317
0.00370591
0.00288949
0.00173692
0.000866416
0.000844417
0.00082295
0.000802847
0.000783331
0.000762964
0.000742067
0.000723028
0.000708841
0.000701519
0.000700428
0.000705183
0.000715263
0.00073032
0.000750241
0.000775168
0.000805602
0.000842645
0.000886244
0.000936183
0.000992591
0.00105541
0.00112407
0.00119832
0.00124022
0.00112702
0.00105375
0.00119289
0.00215767
0.00553416
0.00519541
0.0042134
0.00367824
0.00353458
0.00354861
0.00344762
0.00331656
0.00336887
0.0039035
0.00484694
0.00160311
0.0025882
0.00329566
0.00376356
0.00385162
0.00373168
0.00357531
0.00337852
0.00323703
0.00348934
0.00432492
0.00534677
0.00083586
0.00171733
0.00237027
0.00272632
0.00285104
0.00290643
0.00322894
0.00411206
0.00524344
0.00604077
0.000496856
0.000898463
0.00151959
0.00209935
0.00263402
0.00336714
0.00446658
0.00555261
0.00614848
0.00627583
0.00303169
0.00239962
0.0011334
0.00160761
0.00238947
0.00332593
0.00434048
0.00532076
0.00590097
0.00598613
0.00556637
0.00514101
0.00209249
0.00233433
0.00305465
0.00351051
0.00393894
0.00426127
0.00441267
0.00432487
0.0039785
0.00334879
0.00233002
0.00125458
0.00134752
0.00271137
0.00403665
0.00441227
0.00419693
0.00386182
0.003655
0.0035363
0.00336468
0.00329106
0.00365668
0.00454727
0.00107576
0.0011805
0.00159355
0.00233846
0.00295653
0.00325156
0.00329767
0.00321879
0.00312406
0.00335315
0.00417536
0.00525755
0.000463519
0.00073979
0.00145441
0.0020533
0.0024335
0.00269429
0.00318065
0.00418367
0.00534053
0.00609094
0.000488688
0.000775723
0.00133358
0.00203108
0.00282086
0.00382772
0.00494651
0.00579952
0.00615849
0.00600559
0.00108063
0.00269835
0.0023296
0.00241123
0.00310701
0.00389283
0.00464429
0.00526423
0.00555782
0.00540863
0.00482277
0.00404583
0.000987744
0.000900385
0.000954692
0.000991185
0.00098305
0.000933842
0.000851322
0.00074385
0.000630386
0.000526124
0.000436688
0.000404539
0.00186593
0.00360045
0.0043416
0.00435076
0.00402108
0.00373743
0.00360065
0.00345394
0.00329621
0.00340029
0.0040562
0.00505206
0.00109622
0.00119862
0.00196186
0.00268466
0.00314298
0.00329739
0.00326692
0.00315791
0.00317119
0.00369564
0.00472424
0.00569338
0.00044592
0.00109498
0.00178039
0.00226855
0.00256541
0.00287719
0.00362568
0.00478391
0.00578462
0.00626654
0.000550574
0.00103029
0.00167099
0.00240954
0.00328918
0.00441061
0.00541967
0.00605468
0.00611579
0.00596344
0.00294817
0.00264801
0.00224568
0.00273922
0.00349491
0.00427552
0.00498217
0.00546322
0.00553787
0.00517023
0.0044107
0.00393438
0.000877302
0.000931125
0.000975079
0.000993287
0.000962859
0.000896441
0.000799741
0.000686487
0.000576985
0.00047807
0.000409923
0.000414643
)
;

boundaryField
{
    floor
    {
        type            nutkWallFunction;
        Cmu             0.09;
        kappa           0.41;
        E               9.8;
        value           nonuniform List<scalar> 
36
(
0.000132473
5.92127e-05
7.01094e-05
7.96656e-05
8.26967e-05
8.1051e-05
7.55513e-05
6.95056e-05
6.40655e-05
5.93219e-05
5.51752e-05
5.15333e-05
4.83251e-05
4.54693e-05
4.28604e-05
4.03799e-05
3.78891e-05
3.65024e-05
3.30592e-05
3.30592e-05
4.59564e-05
5.55127e-05
6.44735e-05
8.74871e-05
9.18884e-05
9.96605e-05
0.000132473
0.000159037
0.000132003
0.000108005
5.92126e-05
0.000108005
5.89688e-05
0.000128708
9.3933e-05
0.000148838
)
;
    }
    ceiling
    {
        type            nutkWallFunction;
        Cmu             0.09;
        kappa           0.41;
        E               9.8;
        value           nonuniform List<scalar> 
58
(
0.000106164
0.000112564
0.000117759
0.000119906
0.000116324
0.000108452
9.68622e-05
8.30699e-05
6.947e-05
5.69106e-05
4.8071e-05
4.86887e-05
0.000104876
0.00010224
9.96611e-05
9.72384e-05
9.48797e-05
9.24107e-05
8.98693e-05
8.75465e-05
8.58109e-05
8.49136e-05
8.47798e-05
8.53627e-05
8.6597e-05
8.84369e-05
9.08643e-05
9.38909e-05
9.75707e-05
0.000102028
0.000107244
0.000113183
0.000119847
0.000127218
0.000135216
0.000143805
0.000148626
0.000135559
0.000127024
0.000143183
0.00013202
0.000143875
5.83826e-05
9.97465e-05
0.000108914
0.000115353
0.000119657
0.000118703
0.000112894
0.000103064
9.00874e-05
7.61381e-05
6.30484e-05
5.15633e-05
4.7365e-05
0.000122904
0.000141787
7.51029e-05
)
;
    }
    sWall
    {
        type            nutkWallFunction;
        Cmu             0.09;
        kappa           0.41;
        E               9.8;
        value           nonuniform List<scalar> 4(0.000130138 0.000119261 0.000128977 9.97495e-05);
    }
    nWall
    {
        type            nutkWallFunction;
        Cmu             0.09;
        kappa           0.41;
        E               9.8;
        value           nonuniform List<scalar> 6(9.96615e-05 0.000103436 0.000121847 0.00014268 0.000147692 0.000143193);
    }
    sideWalls
    {
        type            empty;
    }
    glass1
    {
        type            nutkWallFunction;
        Cmu             0.09;
        kappa           0.41;
        E               9.8;
        value           nonuniform List<scalar> 10(0.000120771 0.000162966 0.000199988 0.000237118 0.000273571 0.000313964 0.000161044 0.000129704 0.000154626 0.000122949);
    }
    glass2
    {
        type            nutkWallFunction;
        Cmu             0.09;
        kappa           0.41;
        E               9.8;
        value           nonuniform List<scalar> 2(0.000181875 0.000170964);
    }
    sun
    {
        type            nutkWallFunction;
        Cmu             0.09;
        kappa           0.41;
        E               9.8;
        value           nonuniform List<scalar> 
14
(
0.000120689
0.000130098
0.000132296
0.000138285
0.000143835
0.000149066
0.000154226
0.000159614
0.000165041
0.00017007
0.000174042
0.000175556
0.0001724
0.000161757
)
;
    }
    Table_master
    {
        type            nutkWallFunction;
        Cmu             0.09;
        kappa           0.41;
        E               9.8;
        value           nonuniform List<scalar> 9(0.000102565 8.9629e-05 7.8756e-05 6.98427e-05 6.25611e-05 5.65913e-05 5.16798e-05 4.76629e-05 4.44963e-05);
    }
    Table_slave
    {
        type            nutkWallFunction;
        Cmu             0.09;
        kappa           0.41;
        E               9.8;
        value           nonuniform List<scalar> 9(0.000115415 0.000105446 9.85094e-05 9.33171e-05 8.89198e-05 8.46392e-05 8.0556e-05 7.62427e-05 7.1211e-05);
    }
    inlet
    {
        type            calculated;
        value           uniform 0.000167705;
    }
    outlet
    {
        type            calculated;
        value           nonuniform List<scalar> 4(0.00303169 0.00239962 0.00108063 0.00285546);
    }
}


// ************************************************************************* //
