/*--------------------------------*- C++ -*----------------------------------*\
  =========                 |
  \\      /  F ield         | OpenFOAM: The Open Source CFD Toolbox
   \\    /   O peration     | Website:  https://openfoam.org
    \\  /    A nd           | Version:  6
     \\/     M anipulation  |
\*---------------------------------------------------------------------------*/
FoamFile
{
    version     2.0;
    format      ascii;
    class       volScalarField;
    location    "36099.9999983674134";
    object      epsilon;
}
// * * * * * * * * * * * * * * * * * * * * * * * * * * * * * * * * * * * * * //

dimensions      [0 2 -3 0 0 0 0];

internalField   nonuniform List<scalar> 
778
(
0.000253113
0.000306357
0.000303036
0.000344246
0.000385152
0.000425004
0.00046449
0.000504798
0.000547661
0.000595794
0.00064422
0.000692561
0.000742467
0.000798744
0.000860431
8.94735e-05
0.000262419
0.000268795
0.000249712
0.000219889
0.000183929
0.000152234
0.000126455
0.000105857
8.93994e-05
7.62546e-05
6.56065e-05
5.68146e-05
4.93526e-05
4.27479e-05
3.65017e-05
3.18063e-05
2.35942e-05
0.00079696
0.00144319
0.000287032
0.000259659
0.000261771
0.000267753
0.000276657
0.000290096
0.000310361
0.000340574
0.000379782
0.000430877
0.000499222
0.000600372
0.000785445
0.00112899
0.000978452
0.000858151
0.00051204
0.000369418
0.00029407
0.0002427
0.00020386
0.000186679
0.000154548
0.000124908
0.000100635
8.1444e-05
6.64922e-05
5.47951e-05
4.56091e-05
3.86888e-05
3.44997e-05
3.27375e-05
6.57833e-05
4.80669e-05
0.00163052
0.00407902
0.000407426
0.000242992
0.000229176
0.000231092
0.00023831
0.000250582
0.00026849
0.000292756
0.000324869
0.000366904
0.000421239
0.000494889
0.000601224
0.000724447
0.000829557
0.00158358
0.00102833
0.000512438
0.000367716
0.00029423
0.00026197
0.000550839
0.000362073
0.000250331
0.000181044
0.000136093
0.000105784
8.46872e-05
6.97546e-05
5.94122e-05
4.50969e-05
3.79486e-05
0.000108284
7.07585e-05
0.00285328
0.00877034
0.000709899
0.000240779
0.000202541
0.000200076
0.000203245
0.000209868
0.000220681
0.000237592
0.000263267
0.000299981
0.00034914
0.000412209
0.000487847
0.000560043
0.000612291
0.000824353
0.00156497
0.000729063
0.00045983
0.000358309
0.00030191
0.00029179
0.000813905
0.000612292
0.000481418
0.000388012
0.000318678
0.000263937
0.000218437
0.000178742
0.000141607
8.36265e-05
5.47739e-05
0.000148962
9.43862e-05
0.00454555
0.0158274
0.00134635
0.000258383
0.000175781
0.000166838
0.000165841
0.000167811
0.000173969
0.00018747
0.000211702
0.000248348
0.000297696
0.000359144
0.000427536
0.000488894
0.000528338
0.000582375
0.00062748
0.000483206
0.000393528
0.000331069
0.000282314
0.000248616
0.000247803
0.000226723
0.000202868
0.000180995
0.00016262
0.000146464
0.0001318
0.000118214
0.000105057
8.44206e-05
6.40615e-05
0.000105248
0.000138797
0.000160272
0.000378731
0.000327318
0.00676289
0.0248789
0.00255345
0.000318088
0.000155571
0.000137099
0.000132156
0.000130717
0.000134482
0.000148574
0.000176718
0.00021805
0.000270685
0.000333863
0.000401363
0.00046222
0.000502644
0.000521466
0.000504686
0.000438229
0.000373844
0.000315676
0.00026475
0.000223373
0.000193268
0.00016961
0.0001508
0.000135622
0.000123292
0.000112742
0.00010328
9.45151e-05
8.60773e-05
7.58931e-05
6.52447e-05
7.75224e-05
9.96552e-05
0.000214964
0.00109903
0.000556275
0.00967107
0.0336385
0.00458381
0.000464966
0.000150856
0.000116362
0.000107107
0.000103299
0.000107094
0.000127941
0.000166148
0.000215866
0.000273177
0.000339757
0.000408881
0.000469952
0.000509732
0.000520141
0.000494141
0.000437554
0.000371824
0.000307476
0.000250534
0.000204414
0.000169725
0.000144546
0.000126329
0.000112751
0.000102298
9.37227e-05
8.62174e-05
7.93281e-05
7.27849e-05
6.61346e-05
6.02684e-05
6.35914e-05
7.67399e-05
0.000179534
0.0016604
0.000920665
0.0127577
0.0404087
0.00749042
0.000871151
0.000194237
0.000115371
9.73874e-05
9.14625e-05
9.86385e-05
0.000137726
0.000189305
0.000246235
0.000306912
0.000373533
0.000444353
0.000507586
0.000546963
0.000550615
0.000515492
0.000451436
0.000375447
0.000300915
0.00023644
0.000185931
0.000149297
0.000123985
0.000106733
9.46041e-05
8.57754e-05
7.88377e-05
7.29131e-05
6.75265e-05
6.2456e-05
5.76527e-05
5.39017e-05
5.5424e-05
7.04462e-05
0.000379586
0.00593114
0.00214305
0.0138265
0.0414612
0.0139333
0.00316288
0.000629568
0.000207872
0.000132622
0.000115964
0.000142399
0.000192877
0.000249256
0.000306367
0.000367225
0.000436415
0.000510775
0.000575389
0.000610563
0.000602843
0.000551889
0.00047076
0.000378344
0.000290815
0.000218197
0.000163996
0.000126784
0.00010264
8.73363e-05
7.7403e-05
7.0729e-05
6.57307e-05
6.15158e-05
5.76508e-05
5.3978e-05
5.05823e-05
4.82184e-05
5.11962e-05
9.66092e-05
0.00117952
0.0160597
0.00305559
0.0130038
0.0283723
0.0144158
0.00572526
0.00210301
0.00083385
0.000413312
0.000276672
0.00027881
0.000314422
0.000355958
0.000401618
0.000458517
0.000530855
0.000609951
0.000673886
0.000698467
0.000670276
0.000593416
0.000486335
0.00037239
0.000270551
0.000191108
0.000135787
0.00010074
7.99532e-05
6.80467e-05
6.12717e-05
5.71954e-05
5.42515e-05
5.16933e-05
4.92194e-05
4.67811e-05
4.46044e-05
4.38065e-05
5.2072e-05
0.00018659
0.00334392
0.0124052
0.00326111
0.0106895
0.019359
0.012039
0.00629925
0.00317323
0.00167369
0.000985962
0.000678423
0.000559543
0.000516969
0.000510159
0.000531343
0.000583807
0.000663125
0.000747956
0.000805403
0.000807258
0.000743664
0.000627394
0.000485435
0.000347145
0.000233391
0.000152532
0.000101898
7.36766e-05
5.89023e-05
5.14364e-05
4.80236e-05
4.62342e-05
4.49208e-05
4.3619e-05
4.21935e-05
4.07512e-05
3.98709e-05
4.18665e-05
6.00804e-05
0.000235672
0.00250708
0.0112754
0.00340368
0.00807274
0.0137712
0.00969245
0.00593273
0.00356878
0.00222659
0.00148998
0.00109214
0.000868613
0.000743065
0.000685613
0.000690205
0.000751197
0.000845982
0.000933659
0.000969396
0.000926169
0.000804954
0.000633882
0.00045122
0.000292502
0.000177249
0.000107112
6.95333e-05
5.25353e-05
4.4403e-05
4.05951e-05
3.92084e-05
3.86261e-05
3.81749e-05
3.75841e-05
3.68351e-05
3.62978e-05
3.75228e-05
4.6428e-05
9.30784e-05
0.00035527
0.00227418
0.00890128
0.00390142
0.00612434
0.0101685
0.00779179
0.00531256
0.00357
0.00246886
0.00178762
0.00136787
0.00109261
0.00092578
0.000859241
0.000887385
0.000984569
0.00110015
0.00117223
0.00115176
0.00102699
0.00082081
0.000584933
0.0003676
0.000208074
0.00011447
7.20739e-05
5.21809e-05
4.27178e-05
3.79821e-05
3.57088e-05
3.49227e-05
3.46376e-05
3.44302e-05
3.41529e-05
3.39951e-05
3.51251e-05
4.24162e-05
7.69219e-05
0.000220017
0.000701517
0.00243631
0.00786713
0.00341494
0.00618213
0.00781474
0.00680615
0.00474034
0.00336608
0.00246261
0.00186583
0.00146234
0.00119451
0.00106457
0.00107095
0.00118232
0.00133317
0.0014424
0.00144233
0.00130227
0.00105079
0.00074068
0.000455724
0.000237755
0.000130985
8.17281e-05
5.9718e-05
4.87534e-05
4.2572e-05
3.88399e-05
3.66991e-05
3.57412e-05
3.53416e-05
3.5175e-05
3.52135e-05
3.60288e-05
4.03954e-05
5.98083e-05
0.000137875
0.000401867
0.00112821
0.00284854
0.00594438
0.00290005
0.00454558
0.00511569
0.00418616
0.00336252
0.00264035
0.00207064
0.00164945
0.00136206
0.00124477
0.00130074
0.00148004
0.00169122
0.00183092
0.00182305
0.00164152
0.00130322
0.000908514
0.00051884
0.000278336
0.000155167
0.00010192
7.85649e-05
6.64945e-05
5.86752e-05
5.29628e-05
4.88262e-05
4.61756e-05
4.49063e-05
4.47253e-05
4.52435e-05
4.65052e-05
4.9353e-05
5.74773e-05
8.43642e-05
0.000173869
0.000445678
0.00115387
0.00273659
0.00550813
0.00265326
0.0013985
0.00142907
0.0014319
0.00135359
0.00131186
0.00142272
0.00170717
0.00204427
0.00231071
0.0024128
0.00229941
0.00198556
0.00153464
0.000981314
0.000568392
0.000312563
0.000187907
0.000135244
0.00011293
0.000100914
9.22422e-05
8.49875e-05
7.8969e-05
7.4567e-05
7.22239e-05
7.21332e-05
7.45017e-05
7.88481e-05
8.50349e-05
9.3571e-05
0.000107338
0.00013664
0.000212247
0.000417036
0.000950619
0.00223319
0.00495928
0.00325218
0.00118792
0.00171597
0.00195393
0.00230975
0.00275618
0.00316172
0.00334283
0.00331166
0.00309174
0.00270313
0.00213435
0.00151565
0.000980045
0.000576815
0.000343817
0.000233818
0.00018914
0.000170163
0.000159549
0.00015143
0.000144288
0.00013813
0.000133633
0.000131764
0.000133478
0.000139443
0.000149791
0.000164827
0.000183985
0.00020719
0.000236176
0.000278091
0.000353252
0.000513367
0.000906119
0.00231739
0.00412274
0.00364869
0.00741277
0.00807627
0.00481401
0.00340585
0.00373833
0.00414644
0.00415663
0.00394379
0.00358732
0.003133
0.00262841
0.00208723
0.00153795
0.00105091
0.000685024
0.000461145
0.000353894
0.000309694
0.000291536
0.00028277
0.000277196
0.000272276
0.000267034
0.000261664
0.000257435
0.000256314
0.000260322
0.000270989
0.000289315
0.000316152
0.000352893
0.000401651
0.000466888
0.00055953
0.000705189
0.000954234
0.00145717
0.00328652
0.00448145
0.00400533
0.00650048
0.00513288
0.00436258
0.00461942
0.00454338
0.00427747
0.00369709
0.00304975
0.00246284
0.00196929
0.00156628
0.00124372
0.000991408
0.000802835
0.000667966
0.000575148
0.000517239
0.000484727
0.00047001
0.000467748
0.000473697
0.000484244
0.000496536
0.000508854
0.000520922
0.000533933
0.000550352
0.000573709
0.00060856
0.000660601
0.000737171
0.000848204
0.00100777
0.0012358
0.00156073
0.00202738
0.00271208
0.00412264
0.00611318
0.00426893
0.00536027
0.00337335
0.00332531
0.00362769
0.00389354
0.00356641
0.00297751
0.00237719
0.00186318
0.00144755
0.00111532
0.000853225
0.000656833
0.000525429
0.000454204
0.000425147
0.000419353
0.000427619
0.00044444
0.00046626
0.000490541
0.000515493
0.000540075
0.000564063
0.000588084
0.000613534
0.000642365
0.000676924
0.000720164
0.000776476
0.000853147
0.000962035
0.00112049
0.00134997
0.00167199
0.00210492
0.00266526
0.00336753
0.00418048
0.00341227
)
;

boundaryField
{
    floor
    {
        Cmu             0.09;
        kappa           0.41;
        E               9.8;
        type            epsilonWallFunction;
        value           nonuniform List<scalar> 
36
(
0.000860431
8.94735e-05
0.000262419
0.000268795
0.000249712
0.000219889
0.000183929
0.000152234
0.000126455
0.000105857
8.93994e-05
7.62546e-05
6.56065e-05
5.68146e-05
4.93526e-05
4.27479e-05
3.65017e-05
3.18063e-05
2.35942e-05
2.35942e-05
4.80669e-05
7.07585e-05
9.43862e-05
0.000160272
0.000378731
0.000327318
0.000860431
0.00112899
0.000978452
0.000858151
8.94735e-05
0.000858151
0.00051204
0.00158358
0.00102833
0.00156497
)
;
    }
    ceiling
    {
        Cmu             0.09;
        kappa           0.41;
        E               9.8;
        type            epsilonWallFunction;
        value           nonuniform List<scalar> 
43
(
0.00536027
0.00337335
0.00332531
0.00362769
0.00389354
0.00356641
0.00297751
0.00237719
0.00186318
0.00144755
0.00111532
0.000853225
0.000656833
0.000525429
0.000454204
0.000425147
0.000419353
0.000427619
0.00044444
0.00046626
0.000490541
0.000515493
0.000540075
0.000564063
0.000588084
0.000613534
0.000642365
0.000676924
0.000720164
0.000776476
0.000853147
0.000962035
0.00112049
0.00134997
0.00167199
0.00210492
0.00266526
0.00336753
0.00418048
0.00341227
0.00454558
0.00511569
0.00118792
)
;
    }
    sWall
    {
        Cmu             0.09;
        kappa           0.41;
        E               9.8;
        type            epsilonWallFunction;
        value           nonuniform List<scalar> 9(0.0130038 0.0106895 0.00807274 0.00612434 0.00618213 0.00454558 0.00741277 0.00650048 0.00536027);
    }
    nWall
    {
        Cmu             0.09;
        kappa           0.41;
        E               9.8;
        type            epsilonWallFunction;
        value           nonuniform List<scalar> 
14
(
0.000327318
0.000556275
0.000920665
0.00326111
0.00340368
0.00390142
0.00341494
0.00290005
0.00265326
0.00325218
0.00364869
0.00400533
0.00426893
0.00341227
)
;
    }
    sideWalls
    {
        type            empty;
    }
    glass1
    {
        Cmu             0.09;
        kappa           0.41;
        E               9.8;
        type            epsilonWallFunction;
        value           nonuniform List<scalar> 9(0.000253113 0.00079696 0.00163052 0.00285328 0.00454555 0.00676289 0.00967107 0.0127577 0.0138265);
    }
    glass2
    {
        Cmu             0.09;
        kappa           0.41;
        E               9.8;
        type            epsilonWallFunction;
        value           nonuniform List<scalar> 2(0.00214305 0.00305559);
    }
    sun
    {
        Cmu             0.09;
        kappa           0.41;
        E               9.8;
        type            epsilonWallFunction;
        value           nonuniform List<scalar> 
14
(
0.000253113
0.000306357
0.000303036
0.000344246
0.000385152
0.000425004
0.00046449
0.000504798
0.000547661
0.000595794
0.00064422
0.000692561
0.000742467
0.000798744
)
;
    }
    Table_master
    {
        Cmu             0.09;
        kappa           0.41;
        E               9.8;
        type            epsilonWallFunction;
        value           nonuniform List<scalar> 9(0.000550839 0.000362073 0.000250331 0.000181044 0.000136093 0.000105784 8.46872e-05 6.97546e-05 5.94122e-05);
    }
    Table_slave
    {
        Cmu             0.09;
        kappa           0.41;
        E               9.8;
        type            epsilonWallFunction;
        value           nonuniform List<scalar> 9(0.000813905 0.000612292 0.000481418 0.000388012 0.000318678 0.000263937 0.000218437 0.000178742 0.000141607);
    }
    inlet
    {
        type            turbulentMixingLengthDissipationRateInlet;
        mixingLength    0.01;
        phi             phi;
        k               k;
        value           uniform 0.000471671;
    }
    outlet
    {
        type            zeroGradient;
    }
}


// ************************************************************************* //
