/*--------------------------------*- C++ -*----------------------------------*\
  =========                 |
  \\      /  F ield         | OpenFOAM: The Open Source CFD Toolbox
   \\    /   O peration     | Website:  https://openfoam.org
    \\  /    A nd           | Version:  6
     \\/     M anipulation  |
\*---------------------------------------------------------------------------*/
FoamFile
{
    version     2.0;
    format      ascii;
    class       volScalarField;
    location    "36099.9999983674134";
    object      nut;
}
// * * * * * * * * * * * * * * * * * * * * * * * * * * * * * * * * * * * * * //

dimensions      [0 2 -1 0 0 0 0];

internalField   nonuniform List<scalar> 
778
(
0.0008943
0.000953062
0.000949606
0.000990836
0.00102862
0.00106294
0.00109489
0.00112569
0.00115669
0.00118962
0.00122102
0.00125083
0.00128018
0.00131174
0.00134467
0.000632326
0.00090513
0.000912401
0.000890276
0.000853321
0.000804009
0.000754886
0.000709616
0.000668781
0.000632155
0.000599516
0.0005702
0.000543499
0.000518579
0.000494329
0.000468975
0.000447936
0.00040549
0.00131076
0.0025811
0.00226502
0.00261431
0.00286783
0.00313664
0.00340482
0.00365196
0.00385088
0.0039666
0.00403456
0.00400632
0.00380622
0.003311
0.00241802
0.00147211
0.00140354
0.00134348
0.00113105
0.00192642
0.00266965
0.00310835
0.00312862
0.00246963
0.00211204
0.00186423
0.00167627
0.00152683
0.00139931
0.00128654
0.00118159
0.00107891
0.000986762
0.000907297
0.00102227
0.000514038
0.001664
0.00360433
0.00267234
0.00382221
0.00427094
0.0046508
0.00499585
0.00529955
0.00555679
0.00575835
0.00595352
0.00615861
0.00634668
0.006458
0.00638234
0.00584291
0.00427322
0.00164788
0.001427
0.00305316
0.00426017
0.00483036
0.00439208
0.00115892
0.00100765
0.000891012
0.000799784
0.000727204
0.000668628
0.000620846
0.000581972
0.000551658
0.000606599
0.000713637
0.00113066
0.000584755
0.00200521
0.00485828
0.0025574
0.0042982
0.00496252
0.00531823
0.0055799
0.00577358
0.00591816
0.00603527
0.00620157
0.00648221
0.00689136
0.00740559
0.00792237
0.00817644
0.0076773
0.00572871
0.00164139
0.00380135
0.00565662
0.00659846
0.00682989
0.00582969
0.00131999
0.00120051
0.00110804
0.00103116
0.000965671
0.000906871
0.000851439
0.000796381
0.000736897
0.000688563
0.000714011
0.00122486
0.000643704
0.00234193
0.00643294
0.0025803
0.00408658
0.00510797
0.00541137
0.00552181
0.00552649
0.00547202
0.00542373
0.00549346
0.00576616
0.00626614
0.00697392
0.00779496
0.0085516
0.00903184
0.00902628
0.00810127
0.00824401
0.00843404
0.00846078
0.00828829
0.00775697
0.00617239
0.0053312
0.00475513
0.00428681
0.00382785
0.00338345
0.00294873
0.00251461
0.00206868
0.00158886
0.0012122
0.00121218
0.000958746
0.000767959
0.00102294
0.000974412
0.00267356
0.00819619
0.00303785
0.00344658
0.0048947
0.00523124
0.00520473
0.00501782
0.00475041
0.00452987
0.00452511
0.00481081
0.00538041
0.00620084
0.00716138
0.00812165
0.00893945
0.00946268
0.00955863
0.00946363
0.0092965
0.00905863
0.00875233
0.00836232
0.00779336
0.0072454
0.00674802
0.00626689
0.0057477
0.00519357
0.00460187
0.00396758
0.00328671
0.00256428
0.00190975
0.00143387
0.00111321
0.00125877
0.00220008
0.00116283
0.00301211
0.00982777
0.00404859
0.00282375
0.00439862
0.00494869
0.00488781
0.00458489
0.00414539
0.00375889
0.00374808
0.00410893
0.00476079
0.00567759
0.00672105
0.00775467
0.00864512
0.00928374
0.00957828
0.00955668
0.00934763
0.00903016
0.00866619
0.00830282
0.00795127
0.00762869
0.00732566
0.00700186
0.0066109
0.00614055
0.0055839
0.00493836
0.00420658
0.00340703
0.00262463
0.00189471
0.00139467
0.00125441
0.0022408
0.00137549
0.00330347
0.0110648
0.00552114
0.00268857
0.00348514
0.00438796
0.00451352
0.00426422
0.00374546
0.00321894
0.00333878
0.00381611
0.00454509
0.00548972
0.00657322
0.00765495
0.0085784
0.0092208
0.0095134
0.0094765
0.00920643
0.00880733
0.00837768
0.00799642
0.00770241
0.00749234
0.00732846
0.00714996
0.0069015
0.00655385
0.00609343
0.00551769
0.00483241
0.00405783
0.00325114
0.00243158
0.00169316
0.00114038
0.0033156
0.00182299
0.00339325
0.0104832
0.00683714
0.00347663
0.00236218
0.00289655
0.0033898
0.00343085
0.00302971
0.00294485
0.00325102
0.00381219
0.00460042
0.00560236
0.00673809
0.007853
0.00877272
0.0093649
0.00957336
0.00943111
0.00903908
0.00852454
0.00801386
0.00760628
0.0073475
0.00722052
0.00716305
0.00709455
0.00695174
0.00670062
0.00632778
0.00583206
0.00522019
0.0045084
0.00372542
0.00284182
0.00163161
0.00144786
0.00526969
0.00205238
0.00332457
0.00845775
0.00706633
0.00477536
0.00315184
0.00244014
0.00231205
0.00242165
0.00262512
0.0029494
0.00340917
0.00404066
0.00489822
0.0059792
0.00717739
0.00830812
0.00917909
0.00965822
0.00970755
0.00938483
0.00881758
0.00816509
0.00758273
0.00718356
0.00700055
0.00697941
0.00701953
0.00701906
0.00692689
0.00672378
0.00640346
0.00596596
0.00541523
0.00475518
0.00396518
0.00285371
0.00126713
0.00256189
0.00504201
0.00209684
0.00311432
0.00723139
0.00683536
0.00546788
0.00420571
0.00338458
0.0029789
0.0028875
0.00305604
0.00336595
0.00381539
0.00448195
0.0054297
0.00661618
0.00787647
0.00898329
0.00973246
0.0100086
0.0098091
0.00923322
0.00845348
0.00767356
0.0070808
0.00678278
0.00674842
0.00684719
0.00694719
0.00694887
0.00685179
0.00665527
0.00635567
0.00594953
0.0054306
0.00477204
0.0038665
0.00252113
0.00137363
0.00277109
0.00562829
0.00212695
0.00283608
0.00652181
0.00659605
0.00579075
0.0049239
0.00427192
0.00388824
0.00375073
0.00378564
0.00397262
0.00438473
0.00512954
0.00622671
0.00754289
0.00883131
0.00982647
0.0103346
0.010285
0.00973515
0.00884685
0.00786002
0.00703551
0.00656684
0.00647251
0.00655659
0.00668989
0.00677657
0.00675205
0.00663874
0.00643894
0.00614716
0.00575218
0.0052177
0.0044493
0.00324089
0.00188267
0.00162179
0.00324248
0.00565669
0.0022281
0.00258661
0.00583611
0.00630087
0.00591868
0.00536149
0.00489391
0.00458307
0.00443129
0.00438583
0.0045441
0.00506654
0.00604081
0.0073709
0.00879832
0.0100041
0.0107221
0.0108151
0.0102944
0.00930989
0.00810808
0.00702354
0.00632367
0.00601296
0.00597802
0.00607703
0.00620594
0.00628448
0.00625839
0.00614144
0.00593607
0.00563463
0.005209
0.0045618
0.00347368
0.00208435
0.00153801
0.00207153
0.00362956
0.00565929
0.00213488
0.00259474
0.00579345
0.00643857
0.00599152
0.00554025
0.0051709
0.00490458
0.00473174
0.0047223
0.00510633
0.00602905
0.00741214
0.00897572
0.0103573
0.0112351
0.0114195
0.0108923
0.00978141
0.00837262
0.00700772
0.00601323
0.00542232
0.00514923
0.00509931
0.00517892
0.00529568
0.00536795
0.00533849
0.00520504
0.00497497
0.00464308
0.00417076
0.00343694
0.00237475
0.00159531
0.0017185
0.0025373
0.00372762
0.00468117
0.00201969
0.00234194
0.00243602
0.00359172
0.00421828
0.00441135
0.00441358
0.00437009
0.00444853
0.004983
0.00612933
0.00774879
0.00950311
0.0110087
0.0119416
0.0121084
0.0114716
0.0101904
0.00851763
0.00692065
0.00566424
0.00481712
0.00433525
0.00412541
0.00407992
0.00411471
0.00416071
0.00415683
0.00406288
0.00386782
0.00359806
0.00327363
0.00289837
0.00244357
0.00192806
0.00164273
0.0019371
0.00277482
0.00381843
0.00458361
0.00195796
0.000806388
0.00146293
0.00225884
0.00290113
0.0036437
0.0048955
0.00673975
0.00879379
0.0106735
0.0120886
0.0128362
0.0127787
0.0119136
0.0103343
0.00845137
0.00666561
0.00524448
0.00429342
0.00377497
0.00352933
0.00341873
0.00336554
0.00332414
0.00325875
0.00314306
0.00297337
0.00276618
0.00255905
0.00238002
0.00223753
0.00212111
0.00202406
0.00200893
0.00227105
0.00300107
0.0041332
0.00512594
0.00209218
0.00149729
0.00207716
0.0030338
0.00474147
0.00705779
0.00938434
0.0111921
0.012508
0.0133188
0.0135649
0.0131389
0.0119285
0.0101167
0.00805176
0.00614606
0.00471277
0.00386837
0.00346201
0.00328176
0.0032008
0.00316027
0.0031283
0.00308227
0.00300722
0.00290204
0.002783
0.00267494
0.00259839
0.00255934
0.00255253
0.00257127
0.0026215
0.00273838
0.00300842
0.00361523
0.00501141
0.00552959
0.00217697
0.0027566
0.00667638
0.00613743
0.00548395
0.00697493
0.00930929
0.0112848
0.0126268
0.013346
0.01354
0.0132945
0.0125648
0.0112961
0.00952398
0.00748277
0.00561478
0.00433903
0.00367995
0.00339485
0.0032861
0.00325964
0.00327138
0.00329362
0.00330558
0.00329467
0.00326009
0.00321277
0.00316879
0.00314047
0.00313298
0.00314853
0.00318818
0.00325868
0.00337902
0.00358731
0.00395236
0.00462223
0.00624292
0.00632153
0.00224636
0.00263852
0.00509873
0.00657624
0.00840252
0.00933688
0.0103061
0.0108758
0.0110208
0.0108204
0.0103321
0.00957608
0.00855277
0.0072963
0.00594437
0.00473309
0.00385892
0.00335264
0.00309893
0.00299638
0.00298839
0.00304099
0.00312656
0.00321942
0.00329839
0.00335178
0.00338029
0.0033943
0.00340637
0.00342436
0.00345017
0.00348545
0.00353741
0.00362369
0.00377236
0.00401647
0.00438989
0.00494376
0.00605324
0.00664123
0.00229601
0.00247422
0.00212031
0.0021102
0.00217233
0.00222416
0.00216007
0.00203399
0.00188694
0.00173975
0.0015993
0.00146606
0.00134067
0.00122858
0.00114043
0.00108649
0.00106288
0.00105813
0.0010651
0.00107891
0.00109624
0.00111486
0.00113335
0.00115097
0.00116766
0.00118394
0.00120074
0.00121928
0.00124084
0.00126687
0.00129937
0.00134131
0.00139685
0.00147056
0.00156556
0.00168162
0.00181558
0.00196358
0.00212201
0.00227989
0.00213116
)
;

boundaryField
{
    floor
    {
        type            nutkWallFunction;
        Cmu             0.09;
        kappa           0.41;
        E               9.8;
        value           nonuniform List<scalar> 
36
(
0.000160554
7.6377e-05
0.000109493
0.000110358
0.000107724
0.000103307
9.73784e-05
9.14296e-05
8.59066e-05
8.08885e-05
7.63561e-05
7.22904e-05
6.86157e-05
6.52484e-05
6.20875e-05
5.89934e-05
5.5738e-05
5.302e-05
4.7486e-05
4.74859e-05
6.15089e-05
7.04422e-05
7.77876e-05
9.30158e-05
0.000123406
0.000117695
0.000160554
0.000174977
0.000167234
0.000160418
7.6377e-05
0.000160418
0.000136021
0.000194647
0.000169886
0.000193925
)
;
    }
    ceiling
    {
        type            nutkWallFunction;
        Cmu             0.09;
        kappa           0.41;
        E               9.8;
        value           nonuniform List<scalar> 
43
(
0.000284376
0.000246394
0.000245302
0.000252023
0.000257618
0.000250721
0.000237071
0.000221026
0.000204829
0.000189236
0.000174307
0.000160122
0.000147315
0.000137146
0.000130867
0.000128105
0.000127541
0.00012835
0.00012996
0.000131983
0.000134157
0.000136312
0.000138364
0.000140304
0.00014219
0.000144131
0.000146264
0.000148736
0.000151709
0.000155401
0.000160139
0.000166382
0.00017463
0.00018522
0.000198109
0.000212912
0.000229164
0.00024643
0.000263501
0.000247437
0.00027045
0.000280504
0.000177602
)
;
    }
    sWall
    {
        type            nutkWallFunction;
        Cmu             0.09;
        kappa           0.41;
        E               9.8;
        value           nonuniform List<scalar> 9(0.000373881 0.00035207 0.000322971 0.000296632 0.000297489 0.00027054 0.000314298 0.000301866 0.000284478);
    }
    nWall
    {
        type            nutkWallFunction;
        Cmu             0.09;
        kappa           0.41;
        E               9.8;
        value           nonuniform List<scalar> 
14
(
0.000117703
0.000139708
0.000164064
0.000243947
0.000247211
0.000257958
0.000247617
0.000235303
0.000228804
0.000243667
0.000252605
0.000260033
0.000265256
0.000247474
)
;
    }
    sideWalls
    {
        type            empty;
    }
    glass1
    {
        type            nutkWallFunction;
        Cmu             0.09;
        kappa           0.41;
        E               9.8;
        value           nonuniform List<scalar> 9(0.000108247 0.00015688 0.000196733 0.000234344 0.000270786 0.000306135 0.00034175 0.000372071 0.000381368);
    }
    glass2
    {
        type            nutkWallFunction;
        Cmu             0.09;
        kappa           0.41;
        E               9.8;
        value           nonuniform List<scalar> 2(0.000214145 0.000239201);
    }
    sun
    {
        type            nutkWallFunction;
        Cmu             0.09;
        kappa           0.41;
        E               9.8;
        value           nonuniform List<scalar> 
14
(
0.000108206
0.000115181
0.000114772
0.000119639
0.000124079
0.000128095
0.000131821
0.000135401
0.000138993
0.000142798
0.000146413
0.000149836
0.000153198
0.000156803
)
;
    }
    Table_master
    {
        type            nutkWallFunction;
        Cmu             0.09;
        kappa           0.41;
        E               9.8;
        value           nonuniform List<scalar> 9(0.000139242 0.00012161 0.000107809 9.68677e-05 8.80588e-05 8.08732e-05 7.49559e-05 7.01012e-05 6.62881e-05);
    }
    Table_slave
    {
        type            nutkWallFunction;
        Cmu             0.09;
        kappa           0.41;
        E               9.8;
        value           nonuniform List<scalar> 9(0.000157731 0.000144042 0.000133341 0.000124369 0.000116665 0.000109697 0.00010308 9.64568e-05 8.92409e-05);
    }
    inlet
    {
        type            calculated;
        value           uniform 0.000167705;
    }
    outlet
    {
        type            calculated;
        value           nonuniform List<scalar> 2(0.0027566 0.00667638);
    }
}


// ************************************************************************* //
