/*--------------------------------*- C++ -*----------------------------------*\
  =========                 |
  \\      /  F ield         | OpenFOAM: The Open Source CFD Toolbox
   \\    /   O peration     | Website:  https://openfoam.org
    \\  /    A nd           | Version:  6
     \\/     M anipulation  |
\*---------------------------------------------------------------------------*/
FoamFile
{
    version     2.0;
    format      ascii;
    class       volScalarField;
    location    "31599.9999978755623";
    object      k;
}
// * * * * * * * * * * * * * * * * * * * * * * * * * * * * * * * * * * * * * //

dimensions      [0 2 -2 0 0 0 0];

internalField   nonuniform List<scalar> 
778
(
0.00158605
0.00180128
0.00178809
0.00194658
0.0020977
0.00223983
0.00237632
0.00251173
0.00265185
0.00280496
0.00295502
0.00310123
0.00324876
0.00341128
0.00358511
0.000792496
0.00162628
0.00165262
0.00157356
0.0014456
0.00128303
0.00113074
0.00099907
0.000887416
0.000792941
0.000713213
0.000645185
0.000586169
0.000533632
0.00048487
0.000436382
0.000398044
0.000326144
0.00340723
0.006434
0.00268763
0.00274607
0.00288766
0.0030541
0.00323427
0.00342979
0.00364272
0.00387276
0.00412463
0.00437835
0.00459432
0.00469996
0.00459467
0.00429828
0.00390707
0.00358007
0.00253781
0.00281394
0.00295659
0.00289895
0.00266577
0.00226603
0.00190619
0.00160964
0.00136977
0.00117591
0.00101714
0.000885387
0.000774149
0.000681346
0.00061536
0.000574912
0.00086457
0.000524346
0.00549127
0.0127827
0.00347819
0.00321201
0.00329724
0.00345496
0.00363618
0.00384011
0.00407014
0.0043265
0.0046344
0.00500982
0.00545039
0.00596071
0.0065329
0.00686255
0.00627981
0.00538691
0.00403653
0.00416884
0.00417314
0.00397641
0.00357925
0.00266761
0.00201715
0.00157709
0.00127038
0.00104997
0.000887397
0.000764963
0.000672112
0.000603899
0.000551655
0.000548892
0.00116525
0.000678795
0.00797439
0.0217617
0.00449176
0.00339059
0.00334124
0.0034377
0.00354895
0.00366825
0.00380825
0.00399032
0.00425798
0.0046474
0.00517062
0.00582554
0.00655621
0.007137
0.00723031
0.00724632
0.00534094
0.00554589
0.00537305
0.00512374
0.00478616
0.00434831
0.00345663
0.00286026
0.00243733
0.0021111
0.00185149
0.00163284
0.00143931
0.00125924
0.00107833
0.000801313
0.00066026
0.00142066
0.000823382
0.0108777
0.0336399
0.00621417
0.00342489
0.00315799
0.00316658
0.00318914
0.00320935
0.00325147
0.00336025
0.00359373
0.00398827
0.0045531
0.0052775
0.00608875
0.00681991
0.00728435
0.00764287
0.00751327
0.00665038
0.00606993
0.00557663
0.00509785
0.00462928
0.00412377
0.00366654
0.00327589
0.00293816
0.00263176
0.00234816
0.00207954
0.00181878
0.0015553
0.00122261
0.000931428
0.00119085
0.00121727
0.00117025
0.00202084
0.00187429
0.0141766
0.0476053
0.00928671
0.00349008
0.00290829
0.00282239
0.00276403
0.00269916
0.00266378
0.00273399
0.00298016
0.00341385
0.00402401
0.00479989
0.00565689
0.00646471
0.0070705
0.00740654
0.00732086
0.00678665
0.0062121
0.00563504
0.00507322
0.00455584
0.00409175
0.00369627
0.00336359
0.0030741
0.00280705
0.00255168
0.00229915
0.00204248
0.00177421
0.00147191
0.00117959
0.0011139
0.00111334
0.00169946
0.00503861
0.00268815
0.0179943
0.0606118
0.0143647
0.00382009
0.0027151
0.00252915
0.00241154
0.00229376
0.00222077
0.00231117
0.00262992
0.00313942
0.00380357
0.00463547
0.00553423
0.0063726
0.00700511
0.00732974
0.00725394
0.00681665
0.00621394
0.00555384
0.00491149
0.00434282
0.00387276
0.00350068
0.00320681
0.00296182
0.00274131
0.00252902
0.0023135
0.00208744
0.00184565
0.00158329
0.00132801
0.00116248
0.00109525
0.00154918
0.00622288
0.00371933
0.0216434
0.0704847
0.0214421
0.00510418
0.00274308
0.00237179
0.00221005
0.00208181
0.00202617
0.00221919
0.0026495
0.00323153
0.00394009
0.00478069
0.00570786
0.00658281
0.00723108
0.0075185
0.00738654
0.00689738
0.00619914
0.00542792
0.00469241
0.00406513
0.00357481
0.00321256
0.00294746
0.00274076
0.0025639
0.00239544
0.00222177
0.00203533
0.0018323
0.00161304
0.00139706
0.00123466
0.00116411
0.00209738
0.0134599
0.00628857
0.0228345
0.0694885
0.0325399
0.0110635
0.00406996
0.00258803
0.00223567
0.00210308
0.00219015
0.00251226
0.00300025
0.00360313
0.00433682
0.00522129
0.00619699
0.00709977
0.00772699
0.00792974
0.00766918
0.00702949
0.00616925
0.00525224
0.0044104
0.00372421
0.00321753
0.00286917
0.00263545
0.00246885
0.00233578
0.00221052
0.00207832
0.00193209
0.00176916
0.00159164
0.00141528
0.00129871
0.00139114
0.00402971
0.0257743
0.00831691
0.021918
0.0516247
0.0336442
0.0174402
0.00859336
0.00476269
0.00326295
0.00273089
0.00285407
0.00321128
0.00367271
0.00424842
0.00500141
0.00594941
0.00698834
0.00790118
0.00845211
0.00849116
0.00800986
0.00713087
0.00604921
0.00496142
0.00401697
0.00329409
0.00279976
0.00248972
0.00230285
0.00218467
0.00209614
0.00201067
0.00191486
0.00180303
0.00167383
0.00153054
0.00138923
0.00132762
0.0019189
0.0104298
0.0222388
0.00847764
0.0192307
0.039425
0.0302349
0.0195696
0.0121875
0.0079434
0.00572081
0.00467203
0.00436421
0.00440072
0.0046534
0.00514836
0.00594266
0.00699322
0.00810247
0.00897592
0.00935101
0.00910253
0.00828095
0.00707165
0.0057244
0.00447144
0.00346964
0.00277368
0.00235173
0.00211777
0.00199327
0.0019252
0.00187472
0.00182033
0.00175199
0.00166549
0.00156075
0.00144287
0.00133406
0.00137899
0.00331313
0.0110408
0.018487
0.00820054
0.0159447
0.0315767
0.0266462
0.0195397
0.013979
0.0102874
0.00803041
0.00675502
0.00605136
0.00573229
0.00578454
0.00627875
0.00721788
0.00842832
0.00957523
0.0102868
0.0103112
0.00959646
0.00829573
0.00668134
0.00507295
0.00373455
0.00280013
0.00224089
0.00196067
0.00182032
0.00175067
0.00171605
0.001688
0.00165243
0.00160217
0.00153342
0.00144759
0.00135214
0.00127577
0.00139856
0.00329903
0.0102699
0.0180221
0.00794702
0.013262
0.0256681
0.0233477
0.01869
0.0145852
0.0115902
0.00954584
0.0082115
0.00730141
0.00684178
0.00696139
0.00772529
0.00898473
0.0103665
0.0113986
0.0116913
0.0110929
0.00969207
0.00779917
0.00578142
0.00404356
0.00284649
0.0022017
0.00186994
0.00170728
0.00162611
0.001584
0.00156048
0.00153808
0.00150832
0.00146675
0.00141185
0.0013453
0.00127535
0.00123634
0.00139608
0.0029615
0.0091698
0.0167358
0.00885522
0.0133542
0.0224111
0.0220562
0.0177599
0.014393
0.0118951
0.0100853
0.00876931
0.00791902
0.00777717
0.00847799
0.00987214
0.0115208
0.0128501
0.0133637
0.0127992
0.0112444
0.00897544
0.00653022
0.00431949
0.00296501
0.00222369
0.00185728
0.00167666
0.00158274
0.00152752
0.00148949
0.00145914
0.0014283
0.00139284
0.00135074
0.00130392
0.00126037
0.001245
0.00133151
0.00170152
0.00320344
0.00910911
0.014648
0.00930903
0.0108786
0.0117635
0.0129238
0.012553
0.0113744
0.0100741
0.00894533
0.00820232
0.00830478
0.00942115
0.0112954
0.0133512
0.014916
0.0154612
0.0147476
0.0127991
0.0101001
0.00700523
0.00462485
0.00311635
0.00232794
0.00194783
0.0017628
0.00166104
0.00159322
0.00153769
0.00148516
0.0014328
0.00138199
0.00133326
0.00128852
0.0012617
0.00129165
0.00146067
0.00189041
0.00274265
0.00453831
0.009866
0.0147802
0.00939945
0.00354385
0.00482348
0.00599322
0.00659453
0.00726912
0.00879062
0.0113129
0.0141417
0.0165415
0.0179404
0.0179841
0.0166152
0.0140772
0.0105109
0.00723802
0.00476845
0.00327538
0.00251873
0.0021749
0.00201203
0.00191953
0.00185244
0.00179297
0.00173294
0.00166792
0.00159669
0.00152467
0.00147123
0.00144339
0.00147289
0.00163405
0.00205424
0.00288757
0.00429406
0.00656599
0.0102609
0.0148466
0.00858646
0.00444535
0.0062786
0.00808613
0.0109916
0.0146699
0.0181284
0.0203718
0.0214259
0.0213186
0.0200425
0.0174521
0.0139251
0.010253
0.0069907
0.00471074
0.00342571
0.00283372
0.002589
0.00248188
0.00242234
0.00237985
0.0023454
0.00231628
0.00228994
0.00226146
0.00222338
0.00216893
0.00211186
0.00209809
0.00216057
0.00237776
0.00288291
0.00385378
0.00548569
0.00797946
0.0112339
0.014167
0.00809284
0.0150819
0.0245351
0.0181012
0.0143569
0.0169556
0.0206533
0.0227876
0.0234951
0.0230418
0.0216769
0.0196104
0.0169012
0.0136718
0.0103077
0.00737446
0.00531646
0.00420992
0.00373736
0.00355463
0.00346788
0.00340272
0.00333896
0.00327745
0.00322627
0.00319462
0.00318916
0.00321101
0.00325329
0.00330119
0.00333868
0.00340165
0.00354573
0.00382187
0.00433907
0.00526623
0.00682893
0.00931995
0.0130914
0.0178669
0.00921399
0.0138101
0.0170624
0.0178336
0.0207324
0.0216473
0.0220597
0.0210658
0.0192619
0.017153
0.0149782
0.0128236
0.0107053
0.0086914
0.00695963
0.00570411
0.00497724
0.00464444
0.00451484
0.0044632
0.00443003
0.0043931
0.00435005
0.00430958
0.00428674
0.00430042
0.00437115
0.00451785
0.0047526
0.00507341
0.00545511
0.00583505
0.00619064
0.00660669
0.00721423
0.00817957
0.00971017
0.0121085
0.0163578
0.0177478
0.0111728
0.0121314
0.00891185
0.0088241
0.00934777
0.00979423
0.00922672
0.00815805
0.00697957
0.00587169
0.00488772
0.00403695
0.00333313
0.00280199
0.00245906
0.00228464
0.00222812
0.00223126
0.00225957
0.00229708
0.00233839
0.00238443
0.00244055
0.00251543
0.00261988
0.00276478
0.0029579
0.00320059
0.00348641
0.00380359
0.00414057
0.00449309
0.00486723
0.0052635
0.0057044
0.00622196
0.00683866
0.00755201
0.00838091
0.00941826
0.00927126
)
;

boundaryField
{
    floor
    {
        type            kqRWallFunction;
        value           nonuniform List<scalar> 
36
(
0.00358511
0.000792496
0.00162628
0.00165262
0.00157356
0.0014456
0.00128303
0.00113074
0.00099907
0.000887416
0.000792941
0.000713213
0.000645185
0.000586169
0.000533632
0.00048487
0.000436382
0.000398044
0.000326144
0.000326144
0.000524346
0.000678795
0.000823382
0.00117025
0.00202084
0.00187429
0.00358511
0.00429828
0.00390707
0.00358007
0.000792496
0.00358007
0.00253781
0.00538691
0.00403653
0.00534094
)
;
    }
    ceiling
    {
        type            kqRWallFunction;
        value           nonuniform List<scalar> 
43
(
0.0121314
0.00891185
0.0088241
0.00934777
0.00979423
0.00922672
0.00815805
0.00697957
0.00587169
0.00488772
0.00403695
0.00333313
0.00280199
0.00245906
0.00228464
0.00222812
0.00223126
0.00225957
0.00229708
0.00233839
0.00238443
0.00244055
0.00251543
0.00261988
0.00276478
0.0029579
0.00320059
0.00348641
0.00380359
0.00414057
0.00449309
0.00486723
0.0052635
0.0057044
0.00622196
0.00683866
0.00755201
0.00838091
0.00941826
0.00927126
0.0108786
0.0117635
0.00444535
)
;
    }
    sWall
    {
        type            kqRWallFunction;
        value           nonuniform List<scalar> 9(0.021918 0.0192307 0.0159447 0.013262 0.0133542 0.0108786 0.0150819 0.0138101 0.0121314);
    }
    nWall
    {
        type            kqRWallFunction;
        value           nonuniform List<scalar> 
14
(
0.00187429
0.00268815
0.00371933
0.00847764
0.00820054
0.00794702
0.00885522
0.00930903
0.00939945
0.00858646
0.00809284
0.00921399
0.0111728
0.00927126
)
;
    }
    sideWalls
    {
        type            empty;
    }
    glass1
    {
        type            kqRWallFunction;
        value           nonuniform List<scalar> 9(0.00158605 0.00340723 0.00549127 0.00797439 0.0108777 0.0141766 0.0179943 0.0216434 0.0228345);
    }
    glass2
    {
        type            kqRWallFunction;
        value           nonuniform List<scalar> 2(0.00628857 0.00831691);
    }
    sun
    {
        type            kqRWallFunction;
        value           nonuniform List<scalar> 
14
(
0.00158605
0.00180128
0.00178809
0.00194658
0.0020977
0.00223983
0.00237632
0.00251173
0.00265185
0.00280496
0.00295502
0.00310123
0.00324876
0.00341128
)
;
    }
    Table_master
    {
        type            kqRWallFunction;
        value           nonuniform List<scalar> 9(0.00266761 0.00201715 0.00157709 0.00127038 0.00104997 0.000887397 0.000764963 0.000672112 0.000603899);
    }
    Table_slave
    {
        type            kqRWallFunction;
        value           nonuniform List<scalar> 9(0.00345663 0.00286026 0.00243733 0.0021111 0.00185149 0.00163284 0.00143931 0.00125924 0.00107833);
    }
    inlet
    {
        type            turbulentIntensityKineticEnergyInlet;
        intensity       0.05;
        value           uniform 0.0009375;
    }
    outlet
    {
        type            zeroGradient;
    }
}


// ************************************************************************* //
