/*--------------------------------*- C++ -*----------------------------------*\
  =========                 |
  \\      /  F ield         | OpenFOAM: The Open Source CFD Toolbox
   \\    /   O peration     | Website:  https://openfoam.org
    \\  /    A nd           | Version:  6
     \\/     M anipulation  |
\*---------------------------------------------------------------------------*/
FoamFile
{
    version     2.0;
    format      ascii;
    class       surfaceScalarField;
    location    "1570";
    object      phi;
}
// * * * * * * * * * * * * * * * * * * * * * * * * * * * * * * * * * * * * * //

dimensions      [1 0 -1 0 0 0 0];

internalField   nonuniform List<scalar> 
850
(
-0.00305313
0.00311359
-0.00414586
0.00109272
-0.00501498
0.000869122
-0.00570385
0.000688874
-0.00617594
0.00047209
-0.00639719
0.00022125
-0.00632798
-6.92147e-05
-0.00592415
-0.000403829
-0.0051739
-0.000750251
-0.00412874
-0.00104516
-0.00290046
-0.00122828
-0.00164169
-0.00125877
-0.000539197
-0.00110249
0.000135794
-0.000674991
0.000138145
-0.000922197
0.000925853
-0.000689494
-0.000232702
-5.98768e-05
-0.000629617
0.000543731
-0.000603607
0.00100296
-0.000459231
0.00125951
-0.000256545
0.00136758
-0.000108075
0.00142036
-5.27811e-05
0.00145069
-3.03228e-05
0.00146572
-1.50294e-05
0.00146929
-3.57196e-06
0.00146225
7.03521e-06
0.00143895
2.33021e-05
0.00138036
5.85928e-05
0.00125433
0.00012603
0.00105057
0.000203755
0.000793661
0.000256911
0.0007985
-0.00220748
0.00548447
-0.00329515
0.00218039
-0.00420837
0.00178235
-0.00490615
0.00138665
-0.00538766
0.000953601
-0.00563059
0.000464185
-0.00559455
-0.000105253
-0.00524034
-0.000758042
-0.00456682
-0.00142377
-0.00364278
-0.0019692
-0.00258811
-0.00228295
-0.00154159
-0.00230529
-0.00062878
-0.00201531
9.27951e-05
-0.00139657
0.000872568
-0.000641628
0.00114845
-0.000272099
0.000956738
0.000196072
0.000969427
4.19831e-05
0.00089487
0.000422283
-0.000613003
0.000787015
-0.000994349
0.00110005
-0.000916641
0.00135102
-0.000710204
0.00140752
-0.000313049
0.00141565
-0.000116204
0.00142637
-6.34934e-05
0.00143535
-3.93022e-05
0.00144061
-2.029e-05
0.00144277
-5.73382e-06
0.00144237
7.43676e-06
0.00143688
2.87909e-05
0.0014004
9.50724e-05
0.00124745
0.000278978
0.000978874
0.000472332
0.000644767
0.000591018
0.00145565
-0.00156235
0.00729724
-0.00251037
0.00312842
-0.00334301
0.00261498
-0.00396556
0.00200921
-0.00441313
0.00140117
-0.00466164
0.000712694
-0.00465596
-0.000110935
-0.00433464
-0.00107936
-0.00371308
-0.00204533
-0.00288865
-0.00279363
-0.00198655
-0.00318505
-0.00112264
-0.0031692
-0.000373478
-0.00276447
0.000240453
-0.0020105
0.000751873
-0.00115305
0.00089917
-0.000419397
0.000707286
0.000387957
0.00168797
0.00143694
-0.000528235
0.00163229
-0.00080835
0.00157463
-0.000936693
0.00160796
-0.000949968
0.0018115
-0.000913744
0.00149861
0.00138256
0.00131922
0.00128007
0.00125993
0.00125435
0.00126194
0.00129089
0.00138611
0.00115907
0.000506016
0.000870157
0.000761249
0.000498986
0.000962189
0.0019732
-0.00109549
0.00871738
-0.00185227
0.0038852
-0.00243658
0.00319929
-0.00288264
0.00245527
-0.00322774
0.00174627
-0.00344058
0.000925535
-0.00344196
-0.000109556
-0.00312349
-0.00139784
-0.00254759
-0.00262123
-0.00184587
-0.00349534
-0.00113024
-0.00390069
-0.00048055
-0.00381888
6.58758e-05
-0.0033109
0.000526377
-0.002471
0.000902343
-0.00152901
0.00111927
-0.000636319
0.00130326
0.000203968
0.00225664
0.000734593
0.00216671
0.000101864
0.00199359
-0.000355117
0.00190755
-0.000722306
0.00179674
-0.000825882
0.00166451
-0.000817739
0.00143338
-0.000682616
0.00175714
-0.000323916
0.00193496
-0.000177971
0.00206608
-0.000131275
0.00216709
-0.000101159
0.00222754
-6.06077e-05
0.00222519
2.20322e-06
0.00213243
9.26006e-05
0.00191295
0.000219325
0.00150682
0.000405985
0.00126952
0.000743311
0.000902354
0.00112842
0.000384162
0.00148038
0.002381
-0.000756054
0.00986116
-0.00132704
0.00445619
-0.00150959
0.00338183
-0.00168815
0.00263383
-0.00185309
0.00191121
-0.00196207
0.00103452
-0.00191357
-0.000158058
-0.00155644
-0.00175496
-0.00105539
-0.00312227
-0.000537482
-0.00401325
-7.30082e-05
-0.00436516
0.000305612
-0.0041975
0.000596734
-0.00360202
0.000849518
-0.00272378
0.0010687
-0.0017482
0.00127587
-0.000843493
0.00158624
-0.000106399
0.00202944
0.000291397
0.00206305
6.82471e-05
0.00199548
-0.000287543
0.00181082
-0.000537647
0.00162287
-0.000637932
0.00144573
-0.000640604
0.00131704
-0.000553918
0.00137592
-0.000382797
0.00146417
-0.000266224
0.00154887
-0.000215972
0.00163059
-0.000182885
0.00170095
-0.000130968
0.00174019
-3.70321e-05
0.00172429
0.000108503
0.00163811
0.000305498
0.0014859
0.000558193
0.00132985
0.000899369
0.00115092
0.00130735
0.000803959
0.00182734
0.00101978
0.00216518
-0.00109537
0.00213626
-0.00179356
0.000717811
-0.00172079
-0.000638753
0.0109407
-0.00101438
0.00483183
-0.000633401
0.00300085
-0.000448607
0.00244903
-0.000383916
0.00184652
-0.000303475
0.000954076
-5.15787e-05
-0.000409954
0.000334896
-0.00214144
0.000692611
-0.00347999
0.000952458
-0.0042731
0.00109546
-0.00450816
0.00114576
-0.00424781
0.00113963
-0.00359588
0.00111636
-0.00270051
0.00110072
-0.00173256
0.00113261
-0.00087538
0.00126931
-0.000243104
0.00148368
7.70236e-05
0.00153465
1.72767e-05
0.00143646
-0.000189353
0.00126195
-0.000363136
0.00108223
-0.000458209
0.000924908
-0.000483283
0.000819911
-0.000448921
0.000809233
-0.00037212
0.000858762
-0.000315753
0.000935139
-0.000292348
0.00102609
-0.000273839
0.00112512
-0.000229995
0.00122231
-0.000134223
0.00129537
3.544e-05
0.0013325
0.000268369
0.00134782
0.000542876
0.00138184
0.000865348
0.00148232
0.00120686
0.00168585
0.00162381
0.00203673
0.00181431
0.0023369
0.00183609
0.00182992
0.00122479
0.00017457
-0.000763866
0.0121918
-0.00062148
0.00468944
0.000492312
0.00188706
0.000960728
0.00198062
0.00121818
0.00158906
0.00159983
0.000572433
0.00210325
-0.000913375
0.00244043
-0.00247862
0.00257427
-0.00361383
0.00250672
-0.00420555
0.00227348
-0.00427492
0.00193651
-0.00391084
0.00155956
-0.00321893
0.00120075
-0.0023417
0.000896842
-0.00142865
0.000704978
-0.000683515
0.000652999
-0.000191125
0.00070379
2.62323e-05
0.000711619
9.44806e-06
0.000635207
-0.000112941
0.000507818
-0.000235747
0.000367507
-0.000317898
0.000241612
-0.000357388
0.000155541
-0.000362849
0.000132685
-0.000349264
0.000161832
-0.000344901
0.000221612
-0.000352128
0.0003022
-0.000354427
0.000404583
-0.000332378
0.000533736
-0.000263376
0.000686747
-0.000117571
0.000844798
0.000110317
0.00100685
0.000380827
0.00120871
0.000663489
0.00148334
0.00093223
0.00188379
0.00122336
0.00241733
0.00128077
0.00318504
0.00106838
0.00336171
0.00104812
0.00360509
0.00273595
0.00999923
0.00339171
0.00403368
0.00344941
0.00182936
0.00353519
0.00189483
0.0037466
0.00137765
0.00422268
9.63499e-05
0.00469393
-0.00138462
0.00478897
-0.00257367
0.00451463
-0.00333949
0.00396144
-0.00365236
0.00323024
-0.00354372
0.00242524
-0.00310584
0.0016284
-0.00242209
0.000922442
-0.00163574
0.000347521
-0.000853727
-2.72493e-06
-0.000333269
-0.000141335
-5.25154e-05
-0.000155978
4.08757e-05
-0.000163957
1.74274e-05
-0.000216143
-6.07556e-05
-0.000306946
-0.000144944
-0.000413138
-0.000211706
-0.000512434
-0.000258092
-0.000586675
-0.000288609
-0.000624615
-0.000311324
-0.000633771
-0.000335744
-0.000625881
-0.000360018
-0.000605277
-0.000375031
-0.000566987
-0.000370668
-0.000494783
-0.00033558
-0.000357363
-0.000254991
-0.00014717
-9.98752e-05
0.000103716
0.00012994
0.000388487
0.000378717
0.000706995
0.000613723
0.00108936
0.000840995
0.00150679
0.000863336
0.0018986
0.000676574
0.00120598
0.00174074
0.00509748
0.0105982
0.0146277
0.0125616
0.00389541
0.0112296
0.00322684
0.0103413
0.00226594
0.00953454
0.000903128
0.00853207
-0.000382154
0.00735311
-0.0013947
0.00607976
-0.00206614
0.00476082
-0.00233343
0.00342954
-0.00221244
0.00216449
-0.00184078
0.00100964
-0.00126724
5.64576e-05
-0.000682556
-0.000566263
-0.000231006
-0.000860085
-3.94471e-05
-0.000957239
4.46383e-05
-0.000976763
6.04e-05
-0.000992045
3.27095e-05
-0.00103541
-1.73889e-05
-0.00110797
-7.23836e-05
-0.00119697
-0.000122705
-0.00128877
-0.00016629
-0.0013744
-0.000202979
-0.00145158
-0.000234146
-0.00152713
-0.000260193
-0.00161029
-0.000276859
-0.00170964
-0.000275687
-0.00183482
-0.000245483
-0.00199872
-0.000171679
-0.00221674
-3.69703e-05
-0.00248329
0.000166675
-0.00280727
0.000453918
-0.00327115
0.000842598
-0.00398828
0.00133085
-0.00502978
0.00188249
-0.00651697
0.00235053
-0.00825544
0.00241504
-0.00777186
0.00125715
-0.00235736
0.00895055
0.00560326
0.00747199
0.00470539
0.0070801
0.00265784
0.00672928
0.00125395
0.00611927
0.000227856
0.00524679
-0.000522228
0.00417811
-0.000997455
0.00298255
-0.00113787
0.00169091
-0.0009208
0.000430042
-0.000579921
-0.000609899
-0.000227301
-0.00127126
-2.11961e-05
-0.00156368
6.14204e-05
-0.00167804
7.49058e-05
-0.00170768
7.42834e-05
-0.00171316
6.58816e-05
-0.00172797
4.75183e-05
-0.00176668
2.13149e-05
-0.00183059
-8.46626e-06
-0.00191214
-4.11608e-05
-0.0020036
-7.4831e-05
-0.00210284
-0.000103734
-0.00221127
-0.000125718
-0.00233232
-0.000139141
-0.00246816
-0.000141019
-0.00261761
-0.000126243
-0.00277525
-8.78424e-05
-0.00292871
-1.82186e-05
-0.00306242
9.67393e-05
-0.00317479
0.000279047
-0.00327576
0.000554889
-0.00337726
0.000944097
-0.00348606
0.00143965
-0.00356953
0.00196596
-0.00356784
0.00234884
-0.00330979
0.00215699
-0.00194983
-0.000102804
-0.00422387
-0.000826112
0.00648269
0.000741929
0.00313735
0.00140745
0.00199232
0.00164616
0.00101523
0.00158217
0.000291851
0.00121106
-0.000151124
0.000528737
-0.000315129
-0.000364665
-0.000244464
-0.00124179
-4.36784e-05
-0.00188692
6.52134e-05
-0.0022275
0.000113277
-0.0023582
0.000109504
-0.00238083
8.40503e-05
-0.00237017
6.42415e-05
-0.00234871
5.28277e-05
-0.0023278
4.49739e-05
-0.00231661
3.63279e-05
-0.00232051
2.52174e-05
-0.00233995
1.0973e-05
-0.0023738
-7.31525e-06
-0.00242234
-2.62906e-05
-0.00248365
-4.24228e-05
-0.00255574
-5.36233e-05
-0.00263605
-5.88385e-05
-0.0027205
-5.65678e-05
-0.00280249
-4.42487e-05
-0.0028725
-1.78344e-05
-0.00291795
2.72306e-05
-0.00291811
9.68972e-05
-0.00284767
0.000208611
-0.00267211
0.00037933
-0.0023601
0.000632088
-0.00190382
0.000983361
-0.00128925
0.00135139
-0.000299556
0.00135915
0.0011477
0.000709732
0.00164258
-0.000597683
-0.0024896
-0.0120484
-0.0155769
-0.00905377
-0.00588901
-0.00387443
-0.00284059
-0.00253372
-0.00267284
-0.00297804
-0.00321401
-0.00325002
-0.00317752
-0.0030571
-0.00294049
-0.00284932
-0.00277794
-0.00271794
-0.00266576
-0.00262217
-0.00258967
-0.00257141
-0.00257147
-0.00259059
-0.00262595
-0.00267263
-0.00272466
-0.00277458
-0.00281236
-0.00282391
-0.0027906
-0.00268784
-0.0024736
-0.0020889
-0.0014517
-0.000463531
0.000892287
0.00225558
0.00296936
0.00237586
)
;

boundaryField
{
    floor
    {
        type            calculated;
        value           nonuniform List<scalar> 
36
(
0
0
0
0
0
0
0
0
0
0
0
0
0
0
0
0
0
0
0
-4.83912e-06
-1.23785e-05
-1.85699e-05
-2.36401e-05
-2.11164e-05
-1.96192e-05
-1.84535e-05
-2.35094e-06
-3.7839e-06
-4.35933e-06
-5.04462e-06
-3.65659e-06
-7.6437e-06
-1.10003e-05
-1.12615e-05
-1.38374e-05
-1.19387e-05
)
;
    }
    ceiling
    {
        type            calculated;
        value           nonuniform List<scalar> 
43
(
-4.18412e-05
-4.11761e-05
-4.04762e-05
-2.74112e-05
-2.22658e-05
-1.85998e-05
-1.50241e-05
-1.2002e-05
-9.92672e-06
-8.49973e-06
-7.66508e-06
-7.2859e-06
-7.1384e-06
-7.11091e-06
-7.12232e-06
-7.13993e-06
-7.16668e-06
-7.20818e-06
-7.25798e-06
-7.28951e-06
-7.28805e-06
-7.25039e-06
-7.17102e-06
-7.06642e-06
-6.94289e-06
-6.80103e-06
-6.64825e-06
-6.47549e-06
-6.28413e-06
-6.07908e-06
-5.8594e-06
-5.6255e-06
-5.37673e-06
-5.10613e-06
-4.81156e-06
-4.42499e-06
-4.1396e-06
-4.04936e-06
-4.18152e-06
-3.60385e-06
6.94078e-06
4.17899e-06
-5.33154e-05
)
;
    }
    sWall
    {
        type            calculated;
        value           uniform -0.000241393;
    }
    nWall
    {
        type            calculated;
        value           nonuniform List<scalar> 6(-5.43172e-05 -6.54339e-05 -6.88132e-05 -8.33261e-05 -9.16831e-05 -0.000110142);
    }
    sideWalls
    {
        type            empty;
        value           nonuniform 0();
    }
    glass1
    {
        type            calculated;
        value           nonuniform List<scalar> 9(-6.0458e-05 -0.000163402 -0.000250424 -0.00032465 -0.000387723 -0.000440785 -0.000487285 -0.000543339 -0.000605862);
    }
    glass2
    {
        type            calculated;
        value           nonuniform List<scalar> 2(-0.00028641 -0.00031701);
    }
    sun
    {
        type            calculated;
        value           uniform 0;
    }
    Table_master
    {
        type            calculated;
        value           nonuniform List<scalar> 9(-1.5364e-07 -1.53789e-07 -1.53839e-07 -1.53869e-07 -1.5389e-07 -1.53902e-07 -1.53906e-07 -1.539e-07 -1.5387e-07);
    }
    Table_slave
    {
        type            calculated;
        value           nonuniform List<scalar> 9(1.53531e-07 1.53516e-07 1.53468e-07 1.53431e-07 1.53408e-07 1.53409e-07 1.53414e-07 1.53451e-07 1.53535e-07);
    }
    inlet
    {
        type            calculated;
        value           uniform -0.0106584;
    }
    outlet
    {
        type            calculated;
        value           nonuniform List<scalar> 2(0.0123316 0.00356973);
    }
}


// ************************************************************************* //
