/*--------------------------------*- C++ -*----------------------------------*\
  =========                 |
  \\      /  F ield         | OpenFOAM: The Open Source CFD Toolbox
   \\    /   O peration     | Website:  https://openfoam.org
    \\  /    A nd           | Version:  6
     \\/     M anipulation  |
\*---------------------------------------------------------------------------*/
FoamFile
{
    version     2.0;
    format      ascii;
    class       volScalarField;
    location    "12700";
    object      k;
}
// * * * * * * * * * * * * * * * * * * * * * * * * * * * * * * * * * * * * * //

dimensions      [0 2 -2 0 0 0 0];

internalField   nonuniform List<scalar> 
778
(
0.00158589
0.00180105
0.00178793
0.00194649
0.00209776
0.00224007
0.00237679
0.00251245
0.00265284
0.00280623
0.00295653
0.00310289
0.00325047
0.00341295
0.00358666
0.000793077
0.00162497
0.00165154
0.0015727
0.00144504
0.00128285
0.00113074
0.000999036
0.000887275
0.000792721
0.000712981
0.000644971
0.00058599
0.000533491
0.000484761
0.000436301
0.000397995
0.00032611
0.00340691
0.00643319
0.00268749
0.0027461
0.0028878
0.0030544
0.00323478
0.0034306
0.0036439
0.00387432
0.0041265
0.00438034
0.00459614
0.00470131
0.00459544
0.00429909
0.00390796
0.00358052
0.00253535
0.00281152
0.00295378
0.00289632
0.00266371
0.00226495
0.00190581
0.0016096
0.00136987
0.00117601
0.00101716
0.000885327
0.000774054
0.000681234
0.000615212
0.000574685
0.000864176
0.000524003
0.00549064
0.0127804
0.00347789
0.00321218
0.00329751
0.00345537
0.00363678
0.00384101
0.00407141
0.00432816
0.00463633
0.00501175
0.00545188
0.0059612
0.00653184
0.00686009
0.00627785
0.00538602
0.00403706
0.00416837
0.00417137
0.00397391
0.00357624
0.00266424
0.00201462
0.00157549
0.00126948
0.00104951
0.000887168
0.000764816
0.000671974
0.000603751
0.000551539
0.000548719
0.0011651
0.000677943
0.00797329
0.0217569
0.00449091
0.0033908
0.00334159
0.00343818
0.00354959
0.00366912
0.00380943
0.00399186
0.00425981
0.00464929
0.00517209
0.00582599
0.00655519
0.00713456
0.00722799
0.00724218
0.00534346
0.00555073
0.00537592
0.00512492
0.00478626
0.00434749
0.00345513
0.0028583
0.00243531
0.00210949
0.00185025
0.00163189
0.00143853
0.00125854
0.00107762
0.000800542
0.000659687
0.00142072
0.000821509
0.0108759
0.0336317
0.00621207
0.00342499
0.00315833
0.00316705
0.00318972
0.00321007
0.00325241
0.00336149
0.00359525
0.00398986
0.00455424
0.00527754
0.00608764
0.00681796
0.00728381
0.00764481
0.00751866
0.00665479
0.00607348
0.00557891
0.00509883
0.00462908
0.00412269
0.00366519
0.00327466
0.00293709
0.002631
0.00234765
0.00207913
0.00181833
0.00155467
0.0012216
0.000930101
0.00118964
0.00121561
0.00116763
0.00203463
0.00185825
0.0141741
0.0475943
0.00928214
0.00348988
0.00290853
0.00282277
0.00276449
0.00269971
0.00266444
0.00273479
0.0029811
0.00341464
0.00402397
0.00479806
0.00565389
0.00646097
0.00706894
0.00740773
0.00732444
0.00679043
0.00621531
0.00563721
0.00507425
0.0045559
0.00409118
0.00369553
0.00336299
0.00307359
0.00280676
0.00255156
0.002299
0.00204208
0.00177351
0.00147107
0.00117833
0.00111232
0.00111057
0.00171635
0.00511169
0.00265696
0.0179907
0.0606012
0.0143563
0.00381906
0.00271509
0.00252935
0.00241184
0.00229418
0.00222125
0.00231171
0.00263042
0.00313936
0.00380189
0.00463053
0.00552768
0.00636578
0.00700018
0.00732791
0.00725472
0.00681842
0.00621558
0.00555483
0.00491185
0.00434274
0.00387246
0.00350041
0.00320674
0.00296184
0.00274155
0.0025294
0.00231373
0.00208719
0.00184495
0.00158274
0.00132781
0.00116007
0.00109159
0.00156127
0.00629013
0.00369517
0.0216394
0.0704778
0.0214307
0.00510063
0.00274242
0.00237167
0.00221012
0.00208206
0.00202654
0.00221975
0.00265
0.00323087
0.00393655
0.00477306
0.00569685
0.00657119
0.00722184
0.00751302
0.00738411
0.00689631
0.00619816
0.0054267
0.00469122
0.00406423
0.00357427
0.00321235
0.00294759
0.00274102
0.0025645
0.00239633
0.00222258
0.00203562
0.00183204
0.00161315
0.0013985
0.00123051
0.00115279
0.00211274
0.014346
0.00635259
0.0228322
0.0694972
0.0325272
0.0110495
0.00406428
0.00258663
0.00223535
0.00210314
0.00219035
0.00251313
0.00300114
0.00360211
0.0043313
0.00520977
0.00618093
0.00708317
0.00771371
0.00792104
0.00766369
0.00702502
0.00616459
0.0052476
0.0044066
0.00372168
0.00321609
0.00286845
0.00263527
0.00246888
0.00233639
0.00221174
0.00207987
0.00193353
0.00177048
0.00159378
0.00141872
0.0012865
0.00132226
0.00394732
0.0285037
0.00810114
0.0219181
0.0516422
0.0336409
0.0174263
0.00858133
0.00475588
0.00326009
0.00273017
0.00285391
0.0032122
0.00367349
0.00424622
0.0049928
0.00593303
0.00696698
0.00788045
0.00843641
0.0084808
0.00800192
0.00712238
0.00603944
0.00495184
0.0040095
0.00328924
0.00279684
0.00248783
0.00230157
0.00218375
0.00209604
0.00201152
0.00191657
0.00180557
0.00167773
0.00153734
0.00139845
0.00131188
0.00163817
0.00770266
0.0265539
0.00852737
0.0192343
0.0394433
0.0302381
0.0195622
0.0121778
0.00793538
0.00571538
0.0046689
0.00436279
0.00440072
0.00465287
0.00514337
0.00592916
0.00697091
0.00807656
0.00895385
0.00933669
0.00909348
0.00827144
0.00705806
0.0057077
0.00445573
0.00345856
0.0027666
0.00234694
0.00211385
0.0019893
0.00192239
0.00187292
0.0018194
0.00175176
0.00166633
0.00156405
0.00145211
0.0013509
0.00137035
0.00230103
0.00880419
0.0240955
0.00851851
0.0159509
0.03159
0.0266516
0.0195374
0.0139738
0.010282
0.00802556
0.00674983
0.00604858
0.00573088
0.00578145
0.00626883
0.00719746
0.00840013
0.00954839
0.01027
0.0103055
0.00959324
0.0082853
0.00666116
0.00504892
0.00371457
0.00278952
0.00223217
0.00195306
0.00181322
0.00174442
0.00171099
0.00168396
0.00164867
0.00159766
0.00152804
0.00144205
0.00135275
0.00130715
0.00166067
0.0037844
0.00969377
0.0203983
0.00809919
0.0132665
0.0256698
0.0233494
0.0186884
0.0145822
0.0115866
0.00954202
0.00820863
0.00729954
0.0068395
0.00695434
0.00770784
0.00895636
0.0103364
0.0113808
0.0116928
0.0111068
0.00969955
0.00778762
0.00575602
0.00402194
0.00283163
0.00219292
0.00186151
0.00169718
0.0016152
0.0015745
0.00155337
0.00153315
0.00150391
0.00145999
0.00139939
0.0013269
0.0012677
0.00134135
0.00215571
0.00495764
0.010161
0.016532
0.00751292
0.0133455
0.0224143
0.0220541
0.0177578
0.0143908
0.0118926
0.0100827
0.00876844
0.00791834
0.0077729
0.00846373
0.00984458
0.011488
0.0128314
0.0133757
0.0128392
0.0112906
0.00899532
0.00652111
0.00430859
0.00296233
0.00222634
0.00185774
0.00166993
0.00156867
0.00150992
0.00147391
0.00144957
0.00142484
0.00139302
0.00135047
0.00129727
0.00124204
0.00122123
0.00138164
0.00228004
0.00497601
0.00980952
0.0166712
0.00733562
0.0108731
0.0117623
0.0129231
0.0125531
0.0113757
0.0100765
0.00894904
0.00820614
0.0083051
0.00941098
0.0112694
0.0133166
0.0148965
0.0154848
0.0148229
0.0128967
0.0101835
0.00703793
0.00465192
0.0031474
0.00236062
0.00197391
0.00177441
0.00165436
0.00156987
0.00150483
0.00145385
0.00141426
0.00137784
0.00134073
0.00130373
0.00127319
0.00126413
0.00131381
0.00153605
0.00229394
0.00447482
0.00921138
0.0156753
0.00845929
0.00354621
0.00482886
0.00600465
0.00661261
0.00729251
0.00880654
0.011315
0.0141231
0.0165105
0.0179248
0.01802
0.0167247
0.0142411
0.0106508
0.00736443
0.00486577
0.00336125
0.002595
0.0022355
0.00204982
0.00192894
0.00183034
0.00173993
0.00165571
0.00158204
0.00152645
0.00148896
0.00147326
0.00149045
0.00155359
0.00167326
0.00186812
0.00220927
0.00291903
0.00462883
0.0100415
0.0142679
0.00880445
0.00444544
0.00630056
0.0081241
0.011044
0.0147221
0.0181701
0.0203857
0.0214208
0.0213225
0.0200938
0.0175683
0.0141196
0.0104902
0.00722669
0.00492381
0.00359694
0.00295744
0.0026637
0.00250974
0.00240739
0.00232479
0.00224943
0.00217644
0.002107
0.00204895
0.00201642
0.00202127
0.00207997
0.00221059
0.00242565
0.00273087
0.00313949
0.00370901
0.00461174
0.00633872
0.0114562
0.0147724
0.00912604
0.0150746
0.0244167
0.0180857
0.0144091
0.0170459
0.020752
0.022883
0.0235729
0.0230949
0.0217184
0.0196891
0.0170466
0.0138941
0.0106139
0.00771309
0.00558202
0.00434428
0.00374131
0.00344948
0.00328649
0.00318521
0.0031232
0.00308829
0.00306792
0.00304991
0.00302842
0.00301097
0.00301701
0.00306963
0.00319218
0.00340327
0.00371799
0.00414851
0.00471375
0.00546422
0.00653144
0.00824292
0.0114383
0.0152402
0.00833239
0.0138099
0.0170467
0.0178934
0.0207994
0.0217438
0.0221663
0.0211695
0.0193532
0.0172278
0.0150448
0.0129079
0.0108714
0.00899776
0.00739842
0.0061816
0.00533832
0.00476222
0.00437974
0.00412515
0.00396996
0.00390502
0.00392335
0.00401182
0.00414904
0.00430729
0.00445804
0.00458003
0.00467562
0.00478821
0.0049499
0.00518506
0.00551509
0.00596481
0.00657531
0.00742553
0.0086348
0.0103448
0.0133033
0.0176312
0.00797425
0.0121396
0.00890863
0.00882111
0.00934091
0.00978236
0.0092061
0.00813647
0.00697476
0.00590757
0.00498564
0.00420371
0.00355034
0.00302738
0.00264464
0.0024021
0.00228366
0.00224775
0.00225583
0.00229847
0.00237083
0.00246723
0.00258005
0.00270115
0.00282374
0.0029438
0.00306091
0.00317856
0.00330157
0.00343572
0.00359015
0.00377166
0.00398462
0.00423211
0.0045186
0.00485668
0.00528853
0.00591364
0.00681168
0.00796317
0.00733633
)
;

boundaryField
{
    floor
    {
        type            kqRWallFunction;
        value           nonuniform List<scalar> 
36
(
0.00358666
0.000793077
0.00162497
0.00165154
0.0015727
0.00144504
0.00128285
0.00113074
0.000999036
0.000887275
0.000792721
0.000712981
0.000644971
0.00058599
0.000533491
0.000484761
0.000436301
0.000397995
0.00032611
0.00032611
0.000524003
0.000677943
0.000821509
0.00116763
0.00203463
0.00185825
0.00358666
0.00429909
0.00390796
0.00358052
0.000793077
0.00358052
0.00253535
0.00538602
0.00403706
0.00534346
)
;
    }
    ceiling
    {
        type            kqRWallFunction;
        value           nonuniform List<scalar> 
43
(
0.0121396
0.00890863
0.00882111
0.00934091
0.00978236
0.0092061
0.00813647
0.00697476
0.00590757
0.00498564
0.00420371
0.00355034
0.00302738
0.00264464
0.0024021
0.00228366
0.00224775
0.00225583
0.00229847
0.00237083
0.00246723
0.00258005
0.00270115
0.00282374
0.0029438
0.00306091
0.00317856
0.00330157
0.00343572
0.00359015
0.00377166
0.00398462
0.00423211
0.0045186
0.00485668
0.00528853
0.00591364
0.00681168
0.00796317
0.00733633
0.0108731
0.0117623
0.00444544
)
;
    }
    sWall
    {
        type            kqRWallFunction;
        value           nonuniform List<scalar> 9(0.0219181 0.0192343 0.0159509 0.0132665 0.0133455 0.0108731 0.0150746 0.0138099 0.0121396);
    }
    nWall
    {
        type            kqRWallFunction;
        value           nonuniform List<scalar> 
14
(
0.00185825
0.00265696
0.00369517
0.00852737
0.00851851
0.00809919
0.00751292
0.00733562
0.00845929
0.00880445
0.00912604
0.00833239
0.00797425
0.00733633
)
;
    }
    sideWalls
    {
        type            empty;
    }
    glass1
    {
        type            kqRWallFunction;
        value           nonuniform List<scalar> 9(0.00158589 0.00340691 0.00549064 0.00797329 0.0108759 0.0141741 0.0179907 0.0216394 0.0228322);
    }
    glass2
    {
        type            kqRWallFunction;
        value           nonuniform List<scalar> 2(0.00635259 0.00810114);
    }
    sun
    {
        type            kqRWallFunction;
        value           nonuniform List<scalar> 
14
(
0.00158589
0.00180105
0.00178793
0.00194649
0.00209776
0.00224007
0.00237679
0.00251245
0.00265284
0.00280623
0.00295653
0.00310289
0.00325047
0.00341295
)
;
    }
    Table_master
    {
        type            kqRWallFunction;
        value           nonuniform List<scalar> 9(0.00266424 0.00201462 0.00157549 0.00126948 0.00104951 0.000887168 0.000764816 0.000671974 0.000603751);
    }
    Table_slave
    {
        type            kqRWallFunction;
        value           nonuniform List<scalar> 9(0.00345513 0.0028583 0.00243531 0.00210949 0.00185025 0.00163189 0.00143853 0.00125854 0.00107762);
    }
    inlet
    {
        type            turbulentIntensityKineticEnergyInlet;
        intensity       0.05;
        value           uniform 0.0009375;
    }
    outlet
    {
        type            zeroGradient;
    }
}


// ************************************************************************* //
