/*--------------------------------*- C++ -*----------------------------------*\
  =========                 |
  \\      /  F ield         | OpenFOAM: The Open Source CFD Toolbox
   \\    /   O peration     | Website:  https://openfoam.org
    \\  /    A nd           | Version:  6
     \\/     M anipulation  |
\*---------------------------------------------------------------------------*/
FoamFile
{
    version     2.0;
    format      ascii;
    class       surfaceScalarField;
    location    "6500";
    object      phi;
}
// * * * * * * * * * * * * * * * * * * * * * * * * * * * * * * * * * * * * * //

dimensions      [1 0 -1 0 0 0 0];

internalField   nonuniform List<scalar> 
1482
(
-0.00278648
0.0028519
-0.00343269
0.00064621
-0.00206536
0.00509175
-0.00411537
0.000682679
-0.00294697
0.00152782
-0.00151843
0.00687461
-0.00476125
0.000645881
-0.00378094
0.00151665
-0.00240953
0.00241892
-0.00113146
0.00834535
-0.00532166
0.000560409
-0.00448191
0.00134685
-0.00322335
0.00233046
-0.0019696
0.00325706
-0.000823451
0.00957083
-0.00577714
0.000455483
-0.00507187
0.00115037
-0.00384987
0.00197338
-0.00263567
0.00299654
-0.00161211
0.00404572
-0.000588005
0.0106142
-0.0061144
0.000337254
-0.0055547
0.000938313
-0.0043612
0.0016617
-0.00311986
0.00245756
-0.00208126
0.00346569
-0.00134767
0.00480538
-0.000546846
0.0116619
-0.00631896
0.00020457
-0.00592696
0.000709509
-0.00477118
0.00134829
-0.00351069
0.00205253
-0.00240197
0.00277827
-0.00158717
0.00370519
-0.00126031
0.00551885
-0.000524625
0.0127297
-0.00637245
5.34805e-05
-0.00618076
0.000458378
-0.00508225
0.00102058
-0.00382052
0.00165812
-0.00265359
0.00230415
-0.00174567
0.00293676
-0.00117283
0.00361771
-0.00109868
0.0060929
0.00291794
0.0104062
-0.00624834
-0.000124101
-0.00630524
0.000177957
-0.00529267
0.00066879
-0.00405384
0.00125391
-0.00284449
0.00184903
-0.00185616
0.00241465
-0.00116827
0.0029322
-0.000689172
0.0032082
0.00193892
0.00707192
0.0040753
0.00647309
-0.00591262
-0.000335728
-0.00629244
-0.000136905
-0.00539831
0.000283595
-0.00421168
0.000826627
-0.00298017
0.00138958
-0.00192345
0.00191631
-0.00115133
0.00239771
-0.000602794
0.00284582
0.00081078
0.00433634
0.00367012
0.0074771
0.00248665
0.00415258
-0.00532696
-0.000585659
-0.00613898
-0.000489187
-0.00539356
-0.000141655
-0.00429056
0.000362474
-0.00306423
0.000910682
-0.00195313
0.00141927
-0.00111094
0.00187592
-0.000515988
0.0023109
0.000359195
0.00329741
0.00251181
0.00549464
0.00336668
0.00659707
0.00154165
0.0028065
-0.00440282
-0.000924144
-0.00582867
-0.000895973
-0.00526895
-0.000613794
-0.00428192
-0.0001503
-0.00309598
0.000394223
-0.00195055
0.000908108
-0.00104853
0.00135686
-0.000402338
0.00176227
0.000239143
0.00243095
0.00186827
0.00394095
0.00328046
0.00558086
0.00285039
0.00528832
0.0022444
0.00078945
-0.00284156
-0.00156126
-0.00534404
-0.00140877
-0.00501475
-0.00115017
-0.0041772
-0.000718512
-0.00306695
-0.000179328
-0.00191912
0.000362786
-0.000968007
0.000827586
-0.000273599
0.00122812
0.000316433
0.00168498
0.0015282
0.00277102
0.00305839
0.00416302
0.00352028
0.00491097
0.00306551
0.00446721
-0.00154433
0.00258102
-0.00283835
-0.00486625
-0.00203905
-0.0046573
-0.00176623
-0.00397552
-0.00135185
-0.00297057
-0.000814901
-0.00184881
-0.000249637
-0.000870067
0.000264846
-0.000134567
0.000688555
0.000472385
0.00107217
0.00139757
0.00181561
0.00286388
0.00296553
0.00379477
0.00388853
0.00372095
0.00425553
0.00119532
0.00172756
0.00284538
-0.0053851
-0.00231949
-0.00432189
-0.00237446
-0.00369723
-0.00204453
-0.00280473
-0.00151769
-0.00173816
-0.000925553
-0.000735086
-0.000384618
3.91472e-05
9.11318e-05
0.000668457
0.000492482
0.00143756
0.00103217
0.00273917
0.00194032
0.00388657
0.00287372
0.00428933
0.00332014
0.00346416
0.00198669
0.00455827
-0.00361819
-0.0017609
-0.00394218
-0.0026992
-0.00336629
-0.00270539
-0.00256757
-0.00228169
-0.00157925
-0.0016766
-0.000580026
-0.00108061
0.000244623
-0.000590094
0.00090433
-0.000144741
0.00160945
0.000320591
0.00272579
0.00104555
0.00391065
0.00191623
0.00461611
0.00254694
0.0044918
0.0022925
0.00490384
0.00164112
-0.00185973
-0.00175227
-0.00294146
-0.00276162
-0.0028827
-0.00318279
-0.00224383
-0.00302913
-0.00136002
-0.00250092
-0.000391307
-0.00186532
0.000464127
-0.00130012
0.00115361
-0.000839377
0.00185313
-0.000388414
0.00281924
0.000227142
0.00394657
0.00100963
0.00478962
0.00174273
0.0050094
0.00202934
0.00546856
0.00172779
0.0082913
0.00501796
-0.00184383
-0.00169099
-0.00300273
-0.00217653
-0.00346779
-0.00179643
-0.00363019
-0.00106463
-0.00332452
-0.000160539
-0.00273169
0.000704101
-0.00210529
0.001426
-0.0015725
0.00211733
-0.00110358
0.00298152
-0.000550696
0.00401807
0.000155635
0.00490551
0.000893734
0.00533084
0.00142128
0.0057548
0.0017431
0.00621181
0.00380728
0.00340116
0.00177514
-0.00352077
-0.0015155
-0.00366376
-0.00125499
-0.00400922
-0.000691654
-0.00400316
0.000106946
-0.003592
0.000956046
-0.00298363
0.00170597
-0.00238527
0.00240173
-0.0018569
0.00319164
-0.0013137
0.00412889
-0.000661512
0.00500918
5.19582e-05
0.00556377
0.000660809
0.00601949
0.00115659
0.00600951
0.00194542
0.00412336
0.0030851
-0.00405913
0.00807736
-0.00224307
-0.00158094
-0.00345533
-0.000763028
-0.00415573
-0.000279661
-0.00442121
0.000396274
-0.00429248
0.00119509
-0.00383104
0.0019681
-0.00324576
0.00268455
-0.00266809
0.003433
-0.00209827
0.0042833
-0.00146811
0.00512849
-0.000780819
0.00576241
-0.000146673
0.00626794
0.00041237
0.00620168
0.000964461
0.00372142
0.00234739
-0.00196755
0.000993579
0.0023906
-0.00730801
-0.0072268
0.00826946
-0.00328567
0.000810881
-0.00237531
-0.000272222
-0.00394613
0.000113664
-0.00454905
0.000685606
-0.00471053
0.0014051
-0.00450249
0.0021797
-0.00404265
0.00292404
-0.00348525
0.00366445
-0.00289955
0.00445693
-0.0022719
0.00525907
-0.00159868
0.00593126
-0.000949658
0.00646462
-0.000343316
0.00632977
0.000284357
0.00339891
0.00128703
-0.00111586
0.00149576
-0.00591025
-0.000322898
-0.00661006
0.0073931
-0.00643159
-0.00777547
0.00455214
0.00240708
0.000971031
-0.00256723
0.000710069
-0.0033576
0.000520173
-0.00435263
0.000950508
-0.00481394
0.00158079
-0.00488622
0.00231799
-0.00464079
0.00307505
-0.00419367
0.00382395
-0.00364475
0.00458765
-0.00303028
0.00534972
-0.00236255
0.00601768
-0.00168508
0.00651462
-0.000999609
0.00623672
-0.000250206
0.00307944
0.000603905
-0.000978464
0.00114969
-0.00496684
0.000552431
-0.00803921
0.00126491
-0.00181731
0.00157329
0.000848923
0.00174301
0.00142237
-0.00219435
0.00117466
-0.00303182
0.00104656
-0.00388399
0.00120754
-0.00460966
0.00171345
-0.00494659
0.00237696
-0.00494518
0.00310997
-0.00467571
0.00385607
-0.00422581
0.00460024
-0.00365735
0.0053216
-0.00300216
0.00594386
-0.00228872
0.00633325
-0.00150365
0.00584385
-0.000606681
0.00265799
0.000171295
-0.0010952
0.000720676
-0.00444022
0.000623126
-0.00743189
0.000587716
0.000996012
0.00117526
0.00141668
0.0012574
0.0018393
-0.00167434
0.00154777
-0.00256746
0.00141933
-0.00340459
0.00148758
-0.00416403
0.00181232
-0.00470852
0.00236222
-0.00493186
0.0030269
-0.00486212
0.00373578
-0.00455544
0.0044436
-0.00406918
0.00510929
-0.00344506
0.00564908
-0.00270739
0.00588089
-0.00183634
0.00516758
-0.000827353
0.0021387
-8.73777e-05
-0.0012927
0.000368819
-0.00419803
0.000478529
-0.00676069
0.000591944
0.000666991
0.00150428
0.000862118
0.00181196
0.000844046
0.00218218
-0.00118692
0.00189499
-0.00202156
0.00170519
-0.00285332
0.00169861
-0.00361561
0.00189151
-0.00424321
0.00229051
-0.0046368
0.00284418
-0.00474914
0.00347227
-0.00459862
0.00411011
-0.00422197
0.00469275
-0.00365265
0.00511911
-0.0029151
0.0051779
-0.00200439
0.00428671
-0.000955458
0.00154044
-0.000229102
-0.00152647
0.00014641
-0.00413842
0.000309218
-0.00623991
0.00125894
0.000502797
0.0018636
0.000581175
0.00207483
0.000428261
0.00250191
-0.000747992
0.00219908
-0.00149101
0.00194934
-0.00226572
0.00185118
-0.00300589
0.00192755
-0.00365164
0.00218091
-0.00413361
0.00259083
-0.00438344
0.00309859
-0.00437546
0.0036291
-0.00411763
0.00409987
-0.00362911
0.00439158
-0.00292514
0.00428595
-0.00202316
0.00329756
-0.00101526
0.000880273
-0.000295309
-0.00180402
4.84512e-05
-0.00417822
0.000186188
-0.00589238
0.00176173
0.000331684
0.00211309
0.000340808
0.00216228
0.0028915
-0.000389744
0.00247019
-0.0010191
0.00215887
-0.00170054
0.00196719
-0.00238172
0.00192639
-0.00300473
0.00204033
-0.00351106
0.00229712
-0.0038399
0.00265688
-0.00394173
0.00305042
-0.00379679
0.00338576
-0.00340354
0.00353597
-0.00277352
0.00328765
-0.00192686
0.00226893
-0.000994551
0.000164516
-0.000299527
-0.00213075
3.14127e-05
-0.0042524
0.000122578
-0.00567019
0.00209342
0.000196738
0.00225716
0.000112635
0.0020498
0.00310929
-0.00021794
0.00272344
-0.000642993
0.00233768
-0.00119792
0.00205853
-0.00179188
0.00190375
-0.00235908
0.00188207
-0.00284646
0.00198654
-0.00320047
0.00218817
-0.00337119
0.00242723
-0.00331854
0.00261475
-0.00302579
0.00262267
-0.00249025
0.00226504
-0.00175093
0.00125355
-0.000911504
-0.000567477
-0.000262579
-0.00248225
5.1955e-05
-0.00432221
0.000101143
-0.00551275
0.00229016
8.90837e-05
0.00228071
4.24985e-05
0.00200745
0.00320786
-9.87263e-05
0.00287298
-0.000367479
0.00247701
-0.00078232
0.0021308
-0.00127019
0.00187308
-0.00176121
0.00172297
-0.00219998
0.00168123
-0.00254115
0.00172586
-0.00273815
0.00180821
-0.00275218
0.00184408
-0.00254786
0.00172039
-0.00212352
0.00127122
-0.00149644
0.000289286
-0.000786681
-0.00125141
-0.000227604
-0.00282295
7.80829e-05
-0.00436941
9.90668e-05
-0.00537705
0.00237924
3.31447e-05
0.00229007
1.7605e-05
0.00199
0.00321145
-3.74046e-06
0.00293575
-0.000161499
0.00256114
-0.000451614
0.00218109
-0.00083261
0.00184276
-0.00123987
0.00157871
-0.00161695
0.00140132
-0.00192007
0.00129984
-0.00211513
0.00123088
-0.00216081
0.00112757
-0.00203568
0.000880288
-0.00170776
0.000359324
-0.00121163
-0.000560016
-0.000647145
-0.0018364
-0.000201725
-0.00313291
8.22986e-05
-0.00438952
9.80959e-05
-0.00524312
0.00241238
1.08287e-05
0.00229684
4.73435e-06
0.00198542
0.00313132
7.99771e-05
0.00292566
6.35006e-06
0.00258935
-0.000189704
0.00220555
-0.000476075
0.00181493
-0.000804783
0.00145958
-0.00112074
0.00116536
-0.00138099
0.000932282
-0.00155251
0.000733988
-0.00161824
0.000502729
-0.00153597
0.000156269
-0.00131166
-0.000397696
-0.000950749
-0.00122192
-0.00054974
-0.0022842
-0.000199387
-0.00338938
5.46968e-05
-0.00439254
8.52445e-05
-0.00510944
0.00242321
7.30371e-08
0.00230151
-4.62295e-06
0.0019902
0.00296959
0.000161571
0.00285009
0.000155546
0.00256739
2.83019e-05
0.002201
-0.000185157
0.00178736
-0.000448502
0.00136918
-0.000714379
0.000983126
-0.000938508
0.000645334
-0.00109404
0.00033814
-0.00115666
1.5481e-05
-0.00113099
-0.000388017
-0.000991686
-0.000937485
-0.000771872
-0.00167393
-0.000498757
-0.00260047
-0.000233489
-0.00357928
-9.51465e-06
-0.00439118
5.32866e-05
-0.00498776
0.00242329
-7.27142e-06
0.00230415
-1.38518e-05
0.00200421
0.00271919
0.000250251
0.00271276
0.000298908
0.00250075
0.000222188
0.00216789
6.14176e-05
0.00175547
-0.000153266
0.00130417
-0.000383492
0.00085604
-0.000587293
0.000442155
-0.000735329
6.32003e-05
-0.000819097
-0.000311634
-0.000829546
-0.000733514
-0.000785491
-0.00126321
-0.000665957
-0.00195671
-0.000489085
-0.00280509
-0.000294129
-0.00370135
-0.000111413
-0.00440083
1.35244e-07
-0.00489729
0.00241601
-1.44645e-05
0.00230477
-2.90531e-05
0.00203341
0.00235708
0.000361958
0.00251336
0.00044965
0.00239407
0.000405592
0.00210958
0.000280491
0.00171642
0.000100461
0.00125707
-0.000106174
0.0007761
-0.000303552
0.000314963
-0.000460101
-0.000105711
-0.000566416
-0.000502112
-0.000628617
-0.000923608
-0.000639445
-0.00144964
-0.000599049
-0.00212343
-0.000499212
-0.00293338
-0.000360751
-0.00377899
-0.000216439
-0.00442455
-8.76368e-05
-0.00485946
0.00240155
-2.63561e-05
0.00230207
-6.44854e-05
0.00209805
0.00182389
0.000533031
0.00225054
0.000624773
0.00225245
0.000591274
0.00203065
0.000484523
0.00167052
0.000326398
0.00122182
0.000135716
0.000731117
-6.1192e-05
0.000245805
-0.000234395
-0.000198355
-0.000367457
-0.000605942
-0.000462584
-0.00103152
-0.000520693
-0.00155179
-0.000537271
-0.00222119
-0.000501243
-0.0030184
-0.000414114
-0.00383553
-0.000304102
-0.00446824
-0.00017263
-0.00490928
0.00237519
-5.27134e-05
0.0022903
-0.000177639
0.00227585
-0.000854901
0.00167023
0.00100857
0.00193458
0.000848993
0.00208423
0.000792987
0.00193722
0.000684706
0.00161942
0.000535614
0.00119446
0.000353752
0.000710768
0.000156066
0.000217261
-3.26481e-05
-0.000242634
-0.000190115
-0.00066253
-0.000310867
-0.00109217
-0.000401931
-0.00160977
-0.000462691
-0.00227951
-0.000478894
-0.00307892
-0.000440632
-0.00388449
-0.000365013
-0.0045325
-0.000239676
-0.00504425
0.00232248
-0.000114336
0.00222699
-0.000492945
0.00191389
-0.00128494
0.00132499
0.00163017
0.001709
0.00123415
0.00190576
0.00102747
0.00183883
0.000891382
0.00156668
0.00073745
0.00117215
0.000557926
0.000706454
0.000358066
0.000216257
0.00015707
-0.000254542
-2.07401e-05
-0.000689546
-0.0001631
-0.00112609
-0.00027695
-0.0016425
-0.000369187
-0.00231435
-0.000427811
-0.00312329
-0.000434428
-0.00393083
-0.000394147
-0.00461459
-0.000282739
-0.00524672
0.00220814
-0.000234718
0.00196877
-0.000830773
0.00145973
-0.00173391
0.000782871
0.00227603
0.00155016
0.00178901
0.00179603
0.00134387
0.00175161
0.00111468
0.00151898
0.00093908
0.0011544
0.000755205
0.00071162
0.00055276
0.000232851
0.000341472
-0.000242931
0.000145458
-0.000693495
-1.67911e-05
-0.00114174
-0.000147444
-0.00165937
-0.000260084
-0.00233322
-0.000350295
-0.00315527
-0.000395769
-0.00397533
-0.000389813
-0.00470858
-0.000300003
-0.00549293
0.00197343
-0.000385351
0.00152335
-0.0011018
0.000827606
-0.0028883
0.00370678
0.00136339
0.00246281
0.00183667
0.00174837
0.00172006
0.00137542
0.00148785
0.00114582
0.00114385
0.000949623
0.000722624
0.000744201
0.000260251
0.00052536
-0.000213715
0.000312256
-0.000676886
0.000128849
-0.00114068
-1.78592e-05
-0.00166432
-0.000142497
-0.00234043
-0.000252887
-0.00317645
-0.000329099
-0.00401746
-0.000353577
-0.00480604
-0.000292249
-0.00575726
0.00158808
-0.000514954
0.000936505
-0.00203369
0.00237707
0.0026931
0.00203497
0.00226452
0.0017897
0.00167873
0.00149729
0.00136599
0.00114686
0.00114281
0.000738141
0.000934105
0.000293519
0.000710933
-0.00017133
0.000482974
-0.000641144
0.000276513
-0.00112114
0.000109312
-0.0016575
-2.46886e-05
-0.00233857
-0.000144386
-0.00318752
-0.000241869
-0.00405656
-0.000290036
-0.0048974
-0.0002622
-0.00601471
0.00107312
-0.00107973
0.00133261
0.00108089
0.00227103
0.00245704
0.00198014
0.00207408
0.00157534
0.00160067
0.00117673
0.00133612
0.000758479
0.00112248
0.000327955
0.000899669
-0.000120793
0.000660396
-0.00058826
0.00043009
-0.00108084
0.000236215
-0.00163561
8.74163e-05
-0.00232864
-3.46671e-05
-0.00318876
-0.000143238
-0.00409187
-0.000206675
-0.00497378
-0.000213758
-0.0062429
0.00189473
-0.000531956
0.00175534
0.00159658
0.00221409
0.00222309
0.00176845
0.00188097
0.00125152
0.00152588
0.000786127
0.00130847
0.000357816
0.00109261
-6.9358e-05
0.000848233
-0.000522532
0.000594668
-0.00101895
0.000368191
-0.00159363
0.000194223
-0.00230873
6.74729e-05
-0.00318104
-4.25058e-05
-0.00412173
-0.000113569
-0.00502875
-0.000151911
-0.00642326
0.00201712
0.00080956
0.000413823
0.00221444
0.00159623
0.00203044
0.0019611
0.00140955
0.00172294
0.000821028
0.00149098
0.0003762
0.00129008
-2.86121e-05
0.00105187
-0.000452065
0.000777765
-0.000937464
0.000513185
-0.00152769
0.000302253
-0.00227378
0.000159259
-0.00316654
5.2883e-05
-0.00414118
-2.32625e-05
-0.00505921
-8.33842e-05
-0.00654218
0.00292652
0.00166224
0.000966024
0.00212697
0.0014997
0.00162612
0.00174452
0.000841015
0.00170295
0.00037174
0.00149545
-1.75104e-05
0.00127898
-0.000391181
0.000990983
-0.000842285
0.000682584
-0.00143645
0.00042194
-0.0022184
0.000246879
-0.00314376
0.000136444
-0.00414047
5.19808e-05
-0.00506566
-1.71129e-05
-0.0065928
0.00469431
0.00166436
0.00142865
0.00172718
0.00139863
0.000554366
0.00203114
0.000281814
0.00179288
-7.0559e-05
0.0015485
-0.000365928
0.00125373
-0.000744531
0.000893223
-0.00132109
0.000567224
-0.00213735
0.00034091
-0.00310708
0.000210213
-0.00411677
0.000112634
-0.00504505
3.1098e-05
-0.00657726
0.00673537
0.000369929
0.00278593
-0.000649374
0.00260214
-0.000114334
0.00242709
-0.000269447
0.0019918
-0.000424781
0.00160739
-0.00066245
0.00117164
-0.0011846
0.000756716
-0.00202408
0.000453978
-0.00304897
0.000282889
-0.00407242
0.000165862
-0.00499202
5.94164e-05
-0.00651359
0.00750063
-0.00190936
0.00404585
-0.000714105
0.00320154
-0.000749124
0.0029067
-0.000626288
0.00219349
-0.000621188
0.00156614
-0.0010285
0.00101548
-0.00186834
0.000600944
-0.00295811
0.000363228
-0.00400755
0.000218115
-0.00490817
8.1927e-05
-0.00642173
0.0056982
-0.000936571
0.00426805
-0.00135888
0.00381104
-0.00104075
0.00332152
-0.000611901
0.00218439
-0.000840345
0.00137791
-0.00165294
0.000799953
-0.00281668
0.00045958
-0.00391901
0.000274887
-0.00479417
0.000104152
-0.00630764
0.0048806
-0.0013661
0.004275
-0.00196698
0.00473748
-0.000494585
0.00320469
-0.00055603
0.00190006
-0.00134582
0.00107056
-0.00259731
0.000580539
-0.00380088
0.000341689
-0.0046474
0.00012827
-0.00617182
0.00364734
-0.00230108
0.00460922
-0.000408784
0.00465211
-3.09936e-05
0.00267989
-0.000873522
0.00142748
-0.00225857
0.0007316
-0.00364353
0.000423394
-0.00446064
0.000155156
-0.00601261
0.00149346
-0.000369594
0.00457047
0.000709641
0.00391184
-0.000100905
0.00190707
-0.00173579
0.000904307
-0.00342716
0.000515342
-0.00422209
0.000185135
-0.00582747
0.00128245
0.00119302
0.00408752
0.00104891
0.00276211
-0.000897076
0.00106783
-0.0031228
0.000599905
-0.00391599
0.000209519
-0.0056135
0.00263993
0.00161728
0.00351931
0.000529566
0.00133506
-0.00280751
0.000752288
-0.00350059
0.000184741
-0.00537646
0.00443092
0.00119891
0.00284967
-0.00287106
0.00139818
-0.00278451
3.63601e-05
-0.0051656
0.00581311
-0.00251721
0.00249533
-0.00128947
-9.68303e-05
-0.00510458
0.00349532
-6.4653e-05
0.00127035
-0.00517838
0.0036418
-0.00388687
)
;

boundaryField
{
    floor
    {
        type            calculated;
        value           nonuniform List<scalar> 
36
(
0
0
0
0
0
0
0
0
0
0
0
0
0
0
0
0
0
0
0
-6.60356e-06
-1.74631e-05
-2.70004e-05
-3.56071e-05
-3.6432e-05
-3.01651e-05
-3.00468e-05
-3.21478e-06
-6.01542e-06
-6.19473e-06
-6.32976e-06
-4.22745e-06
-9.57143e-06
-1.04386e-05
-1.40578e-05
-1.51357e-05
-1.65135e-05
)
;
    }
    ceiling
    {
        type            calculated;
        value           nonuniform List<scalar> 
43
(
-5.41732e-05
-6.20835e-05
-6.22289e-05
-5.90537e-05
-5.479e-05
-4.79917e-05
-4.22012e-05
-3.83034e-05
-3.60368e-05
-3.4934e-05
-3.46526e-05
-3.49703e-05
-3.56713e-05
-3.65014e-05
-3.72183e-05
-3.76673e-05
-3.77435e-05
-3.75276e-05
-3.70515e-05
-3.63646e-05
-3.55605e-05
-3.47592e-05
-3.40688e-05
-3.35522e-05
-3.32173e-05
-3.30275e-05
-3.29181e-05
-3.28056e-05
-3.26065e-05
-3.22432e-05
-3.16659e-05
-3.08573e-05
-2.98264e-05
-2.86035e-05
-2.72353e-05
-2.5782e-05
-2.42938e-05
-2.27119e-05
-2.09538e-05
-1.98084e-05
1.86772e-05
1.46755e-05
-0.00015834
)
;
    }
    sWall
    {
        type            calculated;
        value           nonuniform List<scalar> 9(-0.000142215 -0.000166143 -0.000195564 -0.000227352 -0.000247239 -0.000283039 -0.000459277 -0.000481833 -0.000498228);
    }
    nWall
    {
        type            calculated;
        value           nonuniform List<scalar> 
14
(
-9.23415e-05
-9.98296e-05
-0.000105539
-0.000106855
-0.000118942
-0.000132866
-0.000147154
-0.000158044
-0.000164154
-0.000173633
-0.00018356
-0.000199787
-0.000211263
-0.000225179
)
;
    }
    sideWalls
    {
        type            empty;
        value           nonuniform 0();
    }
    glass1
    {
        type            calculated;
        value           nonuniform List<scalar> 9(-6.54165e-05 -0.000174484 -0.00026443 -0.000339283 -0.000402028 -0.00045537 -0.000500885 -0.000543155 -0.000594399);
    }
    glass2
    {
        type            calculated;
        value           nonuniform List<scalar> 2(-0.000376682 -0.00039524);
    }
    sun
    {
        type            calculated;
        value           uniform 0;
    }
    Table_master
    {
        type            calculated;
        value           nonuniform List<scalar> 9(-1.54153e-07 -1.54274e-07 -1.54304e-07 -1.54322e-07 -1.54331e-07 -1.54334e-07 -1.54331e-07 -1.54314e-07 -1.54256e-07);
    }
    Table_slave
    {
        type            calculated;
        value           nonuniform List<scalar> 9(1.53828e-07 1.53865e-07 1.53853e-07 1.53868e-07 1.53883e-07 1.53923e-07 1.5399e-07 1.54086e-07 1.54219e-07);
    }
    inlet
    {
        type            calculated;
        value           uniform -0.0116681;
    }
    outlet
    {
        type            calculated;
        value           nonuniform List<scalar> 2(0.00945994 0.0129948);
    }
}


// ************************************************************************* //
