/*--------------------------------*- C++ -*----------------------------------*\
  =========                 |
  \\      /  F ield         | OpenFOAM: The Open Source CFD Toolbox
   \\    /   O peration     | Website:  https://openfoam.org
    \\  /    A nd           | Version:  6
     \\/     M anipulation  |
\*---------------------------------------------------------------------------*/
FoamFile
{
    version     2.0;
    format      ascii;
    class       volScalarField;
    location    "2140";
    object      nut;
}
// * * * * * * * * * * * * * * * * * * * * * * * * * * * * * * * * * * * * * //

dimensions      [0 2 -1 0 0 0 0];

internalField   nonuniform List<scalar> 
458
(
0.0010694
0.00116385
0.00119015
0.00124709
0.00129953
0.00134918
0.00139885
0.00144927
0.0014905
0.00151639
0.00151931
0.00149173
0.00142417
0.00128116
0.000971969
0.000480382
0.000563148
0.000638467
0.000665721
0.000655301
0.00061323
0.000566685
0.000525034
0.000488955
0.000457618
0.000430254
0.000406311
0.000385078
0.000365739
0.000347395
0.000328976
0.000318032
0.00029229
0.00144196
0.00324206
0.0029902
0.00342617
0.00386083
0.00430795
0.00470915
0.00501937
0.005338
0.0056362
0.00587535
0.00602062
0.00603425
0.00582451
0.00473395
0.00128298
0.0010644
0.000868437
0.00047652
0.00113083
0.00164828
0.00204886
0.00217551
0.00158549
0.00133845
0.00117037
0.00104634
0.000951289
0.000875887
0.000810874
0.000749752
0.000688743
0.000634252
0.000588568
0.000719986
0.00038424
0.00175321
0.00435767
0.00359596
0.00438455
0.00471599
0.0049488
0.00512772
0.00529282
0.00552249
0.0058015
0.00610639
0.0064053
0.00664157
0.00672461
0.00633667
0.00516448
0.00391411
0.00102569
0.000733976
0.00126656
0.00184307
0.00241658
0.00258043
0.000824212
0.000721587
0.000636196
0.000567034
0.000511221
0.000465991
0.000429224
0.000399493
0.000376367
0.000417095
0.000483043
0.000844724
0.000454089
0.00205315
0.00556648
0.00349819
0.00454276
0.00472442
0.00470669
0.00469018
0.00476944
0.00495617
0.00523209
0.00558273
0.00597401
0.00631708
0.00653321
0.00648479
0.00614956
0.00527797
0.00289759
0.00118164
0.0015049
0.00206904
0.00275987
0.00335871
0.00338836
0.000928458
0.000851079
0.000798373
0.000759472
0.000726574
0.000693886
0.000662838
0.000630029
0.000591676
0.000557308
0.00054916
0.00100685
0.000522995
0.00235968
0.00719299
0.00366945
0.00431255
0.00457221
0.00441803
0.0042926
0.00436466
0.0045618
0.0048488
0.00522679
0.00565582
0.005992
0.00615968
0.00615597
0.00603882
0.005691
0.00470596
0.00426545
0.00429653
0.00454726
0.00484592
0.0050292
0.00494688
0.00422088
0.0038475
0.0036417
0.00349427
0.00334502
0.00315274
0.00282605
0.00240522
0.00192647
0.00146538
0.00109901
0.0010238
0.000888848
0.000699207
0.000740174
0.000804525
0.00268783
0.0090258
0.00502587
0.00399296
0.00435225
0.00434391
0.00418399
0.00424387
0.00444484
0.00473189
0.00511525
0.00552663
0.00583775
0.00593766
0.00584394
0.00570953
0.00564925
0.00556832
0.00573621
0.00602726
0.00623158
0.00626839
0.00613143
0.00584435
0.00544341
0.00511752
0.00486374
0.00464007
0.00442041
0.00418725
0.00388602
0.00347323
0.00295099
0.00236031
0.00181363
0.00131492
0.00108077
0.000942861
0.00118734
0.000834447
0.00301089
0.010411
0.00750091
0.00490844
0.00427132
0.00433324
0.00438911
0.00442085
0.0045342
0.00478703
0.00516425
0.0055721
0.00585761
0.00589
0.0057117
0.00558289
0.00579793
0.00627374
0.00675796
0.00703137
0.00703248
0.0067987
0.00640232
0.00591975
0.00543912
0.00505223
0.00475925
0.0045217
0.00431391
0.00412727
0.00395734
0.00373528
0.00337011
0.00288241
0.00237568
0.00188891
0.00157129
0.00143949
0.00137214
0.000991351
0.00309063
0.00966325
0.00820298
0.00688313
0.0058748
0.00542863
0.00501032
0.0047252
0.00471879
0.00495954
0.00534977
0.00575304
0.00599399
0.00594022
0.00572193
0.00577828
0.00639173
0.00689498
0.00715707
0.00714529
0.00686153
0.00637046
0.00576594
0.0051564
0.00464999
0.0042951
0.00405577
0.00388388
0.00375661
0.00367079
0.00363266
0.00363419
0.00353669
0.00324678
0.00296406
0.00280646
0.00287504
0.00303501
0.00360539
0.00153578
0.0030299
0.00365338
0.00403431
0.00424627
0.0042757
0.00421071
0.00421077
0.00438497
0.00474073
0.00519547
0.00566235
0.00603164
0.00615195
0.00594281
0.00588508
0.00619712
0.0065572
0.00668072
0.00659165
0.00627976
0.00575701
0.0051113
0.00446655
0.00393762
0.00357181
0.00333884
0.00318253
0.00306375
0.00296244
0.0028673
0.00276968
0.00266249
0.0025653
0.00248123
0.0024256
0.00239432
0.00233475
0.00221199
0.00206281
0.00143462
0.00133543
0.00234698
0.00322211
0.00390656
0.0045316
0.00514075
0.00562514
0.00595212
0.00616705
0.00620071
0.00600202
0.00575718
0.00575936
0.00586273
0.00578416
0.00555142
0.00518431
0.00468996
0.00412109
0.00356547
0.00312324
0.00282538
0.0026428
0.00253069
0.0024563
0.00240209
0.00236048
0.00232975
0.00231249
0.00231791
0.00233146
0.00234355
0.00234429
0.00230735
0.00219312
0.0019917
0.00174211
0.00115434
0.00201497
0.00395717
0.00507492
0.00580016
0.00636512
0.00641554
0.00608731
0.00575684
0.00547356
0.0049288
0.00454056
0.00445058
0.00438933
0.00421767
0.00395884
0.003638
0.00326177
0.00286592
0.00250909
0.00223139
0.00204004
0.00192978
0.00187812
0.001867
0.00188529
0.00192592
0.00198272
0.00204843
0.0021254
0.00221371
0.00230822
0.00240104
0.00247659
0.00251445
0.0024794
0.00244887
0.00225465
0.00116933
0.00211917
0.00217153
0.00221907
0.00246888
0.00233372
0.00206816
0.00174476
0.00148453
0.00132511
0.00117365
0.00104026
0.00093578
0.000847322
0.000780256
0.000733636
0.00069958
0.000672184
0.000648608
0.000629142
0.000616009
0.000611112
0.000614804
0.00062572
0.000641767
0.000662042
0.000686068
0.000713711
0.00074513
0.000780848
0.000821981
0.000868782
0.000920906
0.00097862
0.0010422
0.00111166
0.00119493
0.00123137
0.00120616
0.0011219
0.00103762
)
;

boundaryField
{
    floor
    {
        type            nutkWallFunction;
        Cmu             0.09;
        kappa           0.41;
        E               9.8;
        value           nonuniform List<scalar> 
36
(
0.000117415
5.72028e-05
6.77264e-05
7.7138e-05
8.05097e-05
7.92225e-05
7.40003e-05
6.81714e-05
6.29058e-05
5.83027e-05
5.42702e-05
5.07207e-05
4.75914e-05
4.47966e-05
4.2234e-05
3.97871e-05
3.73131e-05
3.58346e-05
3.233e-05
3.23299e-05
4.46853e-05
5.38133e-05
6.26458e-05
8.46292e-05
8.96381e-05
9.74411e-05
0.000117415
0.00015352
0.000128266
0.000105117
5.72028e-05
0.000105117
5.67064e-05
0.000123736
8.88829e-05
0.000141879
)
;
    }
    ceiling
    {
        type            nutkWallFunction;
        Cmu             0.09;
        kappa           0.41;
        E               9.8;
        value           nonuniform List<scalar> 
43
(
0.000246192
0.000251845
0.000256969
0.000283774
0.000269378
0.000240776
0.000205383
0.000176377
0.000158332
0.000140959
0.000125446
0.000113136
0.000102589
9.45073e-05
8.88412e-05
8.46752e-05
8.13063e-05
7.8394e-05
7.59798e-05
7.43458e-05
7.37355e-05
7.41958e-05
7.55544e-05
7.75465e-05
8.0055e-05
8.30156e-05
8.64067e-05
9.02421e-05
9.45791e-05
9.95447e-05
0.000105159
0.000111371
0.000118203
0.000125674
0.000133779
0.000143418
0.000147613
0.000144713
0.000134968
0.000125139
0.000343193
0.000407607
0.000234817
)
;
    }
    sWall
    {
        type            nutkWallFunction;
        Cmu             0.09;
        kappa           0.41;
        E               9.8;
        value           uniform 0.000246258;
    }
    nWall
    {
        type            nutkWallFunction;
        Cmu             0.09;
        kappa           0.41;
        E               9.8;
        value           nonuniform List<scalar> 6(9.74417e-05 0.000101045 0.000119707 0.000138739 0.000140474 0.000125146);
    }
    sideWalls
    {
        type            empty;
    }
    glass1
    {
        type            nutkWallFunction;
        Cmu             0.09;
        kappa           0.41;
        E               9.8;
        value           nonuniform List<scalar> 9(0.000128958 0.000171807 0.000206643 0.000239572 0.000272694 0.000307648 0.000341627 0.000349964 0.000343641);
    }
    glass2
    {
        type            nutkWallFunction;
        Cmu             0.09;
        kappa           0.41;
        E               9.8;
        value           nonuniform List<scalar> 2(0.000182232 0.00017084);
    }
    sun
    {
        type            nutkWallFunction;
        Cmu             0.09;
        kappa           0.41;
        E               9.8;
        value           nonuniform List<scalar> 
14
(
0.000128854
0.000139823
0.00014286
0.000149409
0.000155412
0.00016107
0.000166707
0.000172407
0.000177051
0.000179961
0.000180288
0.000177189
0.000169572
0.000153312
)
;
    }
    Table_master
    {
        type            nutkWallFunction;
        Cmu             0.09;
        kappa           0.41;
        E               9.8;
        value           nonuniform List<scalar> 9(9.98121e-05 8.73712e-05 7.68589e-05 6.82198e-05 6.11543e-05 5.53588e-05 5.05959e-05 4.67069e-05 4.36565e-05);
    }
    Table_slave
    {
        type            nutkWallFunction;
        Cmu             0.09;
        kappa           0.41;
        E               9.8;
        value           nonuniform List<scalar> 9(0.000112265 0.000103038 9.6698e-05 9.19867e-05 8.79802e-05 8.39778e-05 8.01553e-05 7.60925e-05 7.13108e-05);
    }
    inlet
    {
        type            calculated;
        value           uniform 0.000167705;
    }
    outlet
    {
        type            calculated;
        value           nonuniform List<scalar> 2(0.00211917 0.00217153);
    }
}


// ************************************************************************* //
