/*--------------------------------*- C++ -*----------------------------------*\
  =========                 |
  \\      /  F ield         | OpenFOAM: The Open Source CFD Toolbox
   \\    /   O peration     | Website:  https://openfoam.org
    \\  /    A nd           | Version:  6
     \\/     M anipulation  |
\*---------------------------------------------------------------------------*/
FoamFile
{
    version     2.0;
    format      ascii;
    class       surfaceScalarField;
    location    "2140";
    object      phi;
}
// * * * * * * * * * * * * * * * * * * * * * * * * * * * * * * * * * * * * * //

dimensions      [1 0 -1 0 0 0 0];

internalField   nonuniform List<scalar> 
850
(
-0.0030531
0.00311356
-0.00414578
0.00109268
-0.00501485
0.000869077
-0.0057037
0.000688846
-0.00617578
0.000472078
-0.00639703
0.000221254
-0.00632784
-6.91925e-05
-0.00592405
-0.000403789
-0.00517384
-0.000750203
-0.00412873
-0.00104511
-0.00290047
-0.00122826
-0.0016417
-0.00125878
-0.000539187
-0.00110251
0.000135815
-0.000675003
0.000138166
-0.000922429
0.000926085
-0.000690035
-0.000232394
-6.07855e-05
-0.00062925
0.000542658
-0.000603443
0.00100184
-0.000459178
0.00125841
-0.000256572
0.00136653
-0.000108119
0.00141935
-5.28193e-05
0.0014497
-3.03593e-05
0.00146477
-1.50629e-05
0.00146837
-3.60641e-06
0.00146138
6.99437e-06
0.00143813
2.32516e-05
0.00137961
5.8522e-05
0.00125368
0.000125921
0.0010501
0.000203587
0.000793449
0.000256649
0.000798288
-0.00220745
0.00548441
-0.00329509
0.00218032
-0.0042083
0.00178228
-0.00490605
0.0013866
-0.00538756
0.000953582
-0.0056305
0.000464196
-0.00559448
-0.000105207
-0.00524031
-0.00075796
-0.00456684
-0.00142368
-0.00364283
-0.00196912
-0.00258817
-0.00228291
-0.00154165
-0.0023053
-0.000628802
-0.00201536
9.2812e-05
-0.00139662
0.000872647
-0.000641668
0.00114856
-0.00027213
0.000956829
0.000196091
0.000969517
4.15369e-05
0.000895549
0.000421806
-0.000612662
0.000786684
-0.000994128
0.00109965
-0.000916413
0.0013505
-0.000710026
0.00140697
-0.000313037
0.0014151
-0.000116256
0.00142583
-6.35425e-05
0.00143482
-3.93488e-05
0.00144008
-2.033e-05
0.00144225
-5.77719e-06
0.00144186
7.38936e-06
0.00143638
2.87292e-05
0.00139992
9.49797e-05
0.00124704
0.000278802
0.000978575
0.000472054
0.000644622
0.000590602
0.00145529
-0.00156233
0.00729717
-0.00251035
0.00312834
-0.00334298
0.0026149
-0.00396553
0.00200916
-0.0044131
0.00140115
-0.00466162
0.000712717
-0.00465597
-0.00011086
-0.0043347
-0.00107923
-0.00371319
-0.00204519
-0.0028888
-0.00279352
-0.0019867
-0.00318501
-0.00112277
-0.00316923
-0.00037356
-0.00276457
0.000240438
-0.00201061
0.000751949
-0.00115318
0.000899332
-0.000419513
0.000707477
0.000387947
0.00168826
0.00143728
-0.000527891
0.00163279
-0.000808176
0.00157519
-0.000936527
0.00160848
-0.000949701
0.00181174
-0.00091329
0.00149886
0.00138276
0.00131937
0.00128017
0.00126
0.00125437
0.00126192
0.0012908
0.00138593
0.0011589
0.000505834
0.000870014
0.000760942
0.000498898
0.000961718
0.00197276
-0.00109548
0.0087173
-0.00185228
0.00388514
-0.0024366
0.00319922
-0.00288268
0.00245523
-0.0032278
0.00174628
-0.00344067
0.000925579
-0.00344208
-0.000109447
-0.00312369
-0.00139762
-0.00254783
-0.00262104
-0.00184614
-0.00349521
-0.00113049
-0.00390065
-0.000480772
-0.00381896
6.57086e-05
-0.00331105
0.000526302
-0.00247121
0.000902404
-0.00152928
0.0011195
-0.000636609
0.00130371
0.00020374
0.00225749
0.00073447
0.00216774
0.000101686
0.00199496
-0.000355111
0.001909
-0.000722217
0.00179821
-0.00082573
0.00166601
-0.000817502
0.00143505
-0.000682335
0.00175866
-0.000323759
0.00193632
-0.000177817
0.00206725
-0.000131081
0.00216803
-0.000100933
0.00222825
-6.03692e-05
0.00222568
2.41295e-06
0.00213278
9.27494e-05
0.00191321
0.000219409
0.00150706
0.000406005
0.00126968
0.000743214
0.000902426
0.00112819
0.000384097
0.00148005
0.00238049
-0.000756055
0.00986108
-0.00132707
0.00445616
-0.00150965
0.0033818
-0.00168825
0.00263383
-0.00185324
0.00191126
-0.00196226
0.00103461
-0.00191381
-0.000157904
-0.00155679
-0.00175464
-0.00105577
-0.00312206
-0.000537861
-0.00401313
-7.33641e-05
-0.00436515
0.000305293
-0.00419761
0.000596466
-0.00360222
0.000849347
-0.00272409
0.00106869
-0.00174863
0.00127611
-0.000844025
0.0015868
-0.000106955
0.00203039
0.000290883
0.00206428
6.77983e-05
0.00199697
-0.000287805
0.00181248
-0.000537722
0.00162461
-0.000637858
0.00144751
-0.000640409
0.00131883
-0.000553649
0.00137758
-0.000382515
0.00146564
-0.000265877
0.00155011
-0.000215548
0.0016316
-0.000182417
0.00170173
-0.000130502
0.00174075
-3.66098e-05
0.00172468
0.000108824
0.00163841
0.000305677
0.00148617
0.000558244
0.00133009
0.000899296
0.00115111
0.00130717
0.000804089
0.00182707
0.00101982
0.00216476
-0.00109519
0.00213612
-0.00179344
0.000717874
-0.00172067
-0.000638757
0.0109406
-0.00101441
0.00483181
-0.000633469
0.00300086
-0.000448743
0.00244911
-0.000384138
0.00184666
-0.000303797
0.000954266
-5.20185e-05
-0.000409683
0.000334396
-0.00214105
0.000692099
-0.00347976
0.000951973
-0.004273
0.00109502
-0.00450819
0.00114535
-0.00424795
0.00113926
-0.00359613
0.00111607
-0.0027009
0.00110061
-0.00173316
0.00113277
-0.000876192
0.00126984
-0.000244023
0.00148463
7.60979e-05
0.00153589
1.65305e-05
0.00143792
-0.000189833
0.00126354
-0.000363343
0.00108388
-0.000458195
0.000926576
-0.000483106
0.000821549
-0.000448622
0.000810748
-0.000371714
0.000860095
-0.000315224
0.00093626
-0.000291713
0.00102701
-0.000273164
0.00112584
-0.000229333
0.00122284
-0.000133609
0.00129574
3.5917e-05
0.0013328
0.00026862
0.0013481
0.000542947
0.00138211
0.000865279
0.00148257
0.00120671
0.00168606
0.00162359
0.00203681
0.00181401
0.00233694
0.00183599
0.00182998
0.00122484
0.000174743
-0.000763857
0.0121918
-0.000621489
0.00468945
0.000492241
0.00188713
0.000960567
0.00198078
0.0012179
0.00158932
0.00159937
0.000572792
0.00210265
-0.000912961
0.00243985
-0.00247824
0.00257368
-0.0036136
0.00250617
-0.00420549
0.00227299
-0.004275
0.00193605
-0.00391101
0.00155913
-0.00321921
0.00120038
-0.00234215
0.000896648
-0.00142943
0.000705102
-0.000684646
0.000653501
-0.000192422
0.000704655
2.49433e-05
0.000712735
8.45083e-06
0.000636474
-0.000113572
0.000509148
-0.000236016
0.00036885
-0.000317897
0.000242949
-0.000357205
0.000156838
-0.000362511
0.000133879
-0.000348755
0.00016289
-0.000344235
0.000222521
-0.000351345
0.000302982
-0.000353624
0.00040527
-0.000331622
0.000534359
-0.000262698
0.000687259
-0.000116983
0.000845188
0.000110691
0.00100719
0.000380948
0.00120903
0.000663431
0.00148363
0.000932112
0.00188402
0.0012232
0.00241742
0.0012806
0.00318505
0.00106837
0.00336164
0.00104825
0.00360519
0.00273593
0.00999916
0.00339169
0.00403369
0.00344932
0.0018295
0.00353496
0.00189514
0.0037462
0.00137808
0.0042221
9.68966e-05
0.00469325
-0.00138412
0.00478831
-0.00257331
0.00451402
-0.00333931
0.00396092
-0.00365239
0.0032298
-0.00354388
0.00242483
-0.00310604
0.001628
-0.00242238
0.00092209
-0.00163624
0.000347408
-0.000854745
-2.49902e-06
-0.000334739
-0.000140834
-5.4087e-05
-0.000155282
3.93913e-05
-0.000163145
1.63143e-05
-0.00021528
-6.14367e-05
-0.0003061
-0.000145196
-0.000412328
-0.000211669
-0.000511641
-0.000257892
-0.000585904
-0.000288249
-0.000623895
-0.000310763
-0.000633106
-0.000335025
-0.000625275
-0.000359175
-0.000604706
-0.000374194
-0.000566421
-0.000369907
-0.000494195
-0.000334924
-0.000356725
-0.000254453
-0.000146597
-9.94374e-05
0.000104166
0.000130185
0.00038886
0.000378737
0.000707303
0.000613669
0.00108958
0.000840927
0.00150688
0.000863298
0.00189863
0.000676622
0.00120603
0.00174085
0.00509763
0.0105981
0.0146276
0.0125614
0.00389568
0.0112292
0.00322735
0.0103407
0.00226659
0.00953386
0.000903728
0.00853145
-0.000381708
0.00735255
-0.00139441
0.0060793
-0.00206606
0.00476052
-0.00233361
0.00342935
-0.00221272
0.00216433
-0.00184102
0.0010095
-0.00126755
5.64405e-05
-0.000683184
-0.000566007
-0.000232297
-0.000859624
-4.11219e-05
-0.000956786
4.30748e-05
-0.000976469
5.90749e-05
-0.000991872
3.1717e-05
-0.00103531
-1.79985e-05
-0.00110789
-7.26137e-05
-0.00119692
-0.000122639
-0.00128872
-0.00016609
-0.00137434
-0.00020263
-0.00145153
-0.000233573
-0.00152707
-0.000259487
-0.00161023
-0.000276017
-0.00170954
-0.000274879
-0.00183468
-0.000244774
-0.00199853
-0.000171074
-0.00221652
-3.64616e-05
-0.00248301
0.000167052
-0.00280697
0.000454149
-0.00327094
0.000842706
-0.00398814
0.00133087
-0.00502968
0.00188247
-0.00651689
0.00235051
-0.00825534
0.00241507
-0.0077718
0.00125731
-0.00235716
0.00895045
0.00560361
0.00747188
0.00470592
0.00708002
0.00265846
0.00672919
0.00125456
0.00611922
0.000228263
0.00524682
-0.000522016
0.00417824
-0.000997479
0.00298288
-0.00113824
0.00169132
-0.00092116
0.000430458
-0.000580153
-0.000609422
-0.000227672
-0.00127066
-2.19498e-05
-0.00156317
6.02145e-05
-0.00167787
7.3582e-05
-0.00170786
7.30667e-05
-0.00171365
6.48567e-05
-0.00172867
4.67451e-05
-0.00176749
2.08167e-05
-0.00183142
-8.6874e-06
-0.00191296
-4.10894e-05
-0.00200447
-7.45847e-05
-0.00210378
-0.000103323
-0.00221223
-0.000125123
-0.00233325
-0.000138463
-0.00246898
-0.000140286
-0.00261829
-0.000125572
-0.00277575
-8.73128e-05
-0.00292902
-1.7806e-05
-0.00306256
9.70828e-05
-0.00317483
0.000279319
-0.00327577
0.000555087
-0.00337727
0.000944209
-0.00348609
0.00143969
-0.0035696
0.00196598
-0.00356798
0.00234889
-0.00331002
0.00215711
-0.00195003
-0.000102688
-0.00422386
-0.000826092
0.00648302
0.000742138
0.00313769
0.00140787
0.00199272
0.00164681
0.00101562
0.00158299
0.000292076
0.001212
-0.000151023
0.000529806
-0.000315287
-0.000363612
-0.00024482
-0.00124093
-4.38405e-05
-0.00188624
6.51525e-05
-0.00222699
0.000113084
-0.00235798
0.000109037
-0.0023811
8.3335e-05
-0.00237089
6.33706e-05
-0.00234984
5.20152e-05
-0.00232929
4.43093e-05
-0.00231832
3.57731e-05
-0.00232221
2.47137e-05
-0.0023416
1.06972e-05
-0.00237545
-7.23659e-06
-0.00242404
-2.59925e-05
-0.00248539
-4.19732e-05
-0.00255741
-5.31073e-05
-0.00263757
-5.83019e-05
-0.00272181
-5.60451e-05
-0.00280355
-4.38317e-05
-0.00287332
-1.75432e-05
-0.00291857
2.74378e-05
-0.00291854
9.70585e-05
-0.00284797
0.00020875
-0.00267232
0.000379435
-0.00236026
0.000632147
-0.00190395
0.00098338
-0.00128938
0.00135141
-0.000299696
0.0013592
0.00114763
0.000709785
0.0016426
-0.000597657
-0.00248957
-0.0120486
-0.0155771
-0.00905361
-0.00588851
-0.00387352
-0.00283929
-0.00253218
-0.0026712
-0.00297655
-0.00321287
-0.00324905
-0.00317661
-0.00305639
-0.00294024
-0.00284978
-0.00277926
-0.00272006
-0.00266853
-0.00262549
-0.00259347
-0.00257546
-0.00257542
-0.00259422
-0.00262911
-0.00267527
-0.00272676
-0.00277616
-0.00281351
-0.00282477
-0.00279125
-0.00268834
-0.00247396
-0.00208915
-0.0014519
-0.000463705
0.000892125
0.00225547
0.0029693
0.00237583
)
;

boundaryField
{
    floor
    {
        type            calculated;
        value           nonuniform List<scalar> 
36
(
0
0
0
0
0
0
0
0
0
0
0
0
0
0
0
0
0
0
0
-4.83915e-06
-1.23784e-05
-1.85697e-05
-2.364e-05
-2.11164e-05
-1.96192e-05
-1.84536e-05
-2.35098e-06
-3.784e-06
-4.35944e-06
-5.04475e-06
-3.65663e-06
-7.64389e-06
-1.10004e-05
-1.1262e-05
-1.38369e-05
-1.19392e-05
)
;
    }
    ceiling
    {
        type            calculated;
        value           nonuniform List<scalar> 
43
(
-4.18434e-05
-4.11781e-05
-4.04782e-05
-2.74142e-05
-2.22704e-05
-1.8606e-05
-1.50301e-05
-1.20049e-05
-9.92954e-06
-8.50215e-06
-7.66653e-06
-7.28644e-06
-7.13881e-06
-7.11207e-06
-7.12558e-06
-7.14693e-06
-7.17805e-06
-7.22077e-06
-7.26745e-06
-7.30797e-06
-7.31533e-06
-7.27624e-06
-7.19278e-06
-7.08148e-06
-6.95278e-06
-6.80946e-06
-6.64869e-06
-6.4752e-06
-6.28389e-06
-6.07889e-06
-5.85923e-06
-5.62536e-06
-5.37656e-06
-5.10604e-06
-4.81155e-06
-4.42495e-06
-4.13955e-06
-4.04931e-06
-4.18153e-06
-3.60391e-06
6.94077e-06
4.1789e-06
-5.33141e-05
)
;
    }
    sWall
    {
        type            calculated;
        value           uniform -0.000241396;
    }
    nWall
    {
        type            calculated;
        value           nonuniform List<scalar> 6(-5.43173e-05 -6.5434e-05 -6.88139e-05 -8.33262e-05 -9.16833e-05 -0.000110141);
    }
    sideWalls
    {
        type            empty;
        value           nonuniform 0();
    }
    glass1
    {
        type            calculated;
        value           nonuniform List<scalar> 9(-6.04583e-05 -0.000163403 -0.000250424 -0.00032465 -0.000387723 -0.000440784 -0.000487283 -0.000543337 -0.000605862);
    }
    glass2
    {
        type            calculated;
        value           nonuniform List<scalar> 2(-0.000286411 -0.000317011);
    }
    sun
    {
        type            calculated;
        value           uniform 0;
    }
    Table_master
    {
        type            calculated;
        value           nonuniform List<scalar> 9(-1.5364e-07 -1.53789e-07 -1.53839e-07 -1.53869e-07 -1.53889e-07 -1.53902e-07 -1.53906e-07 -1.539e-07 -1.5387e-07);
    }
    Table_slave
    {
        type            calculated;
        value           nonuniform List<scalar> 9(1.5353e-07 1.53515e-07 1.53468e-07 1.53431e-07 1.53408e-07 1.53408e-07 1.53413e-07 1.53451e-07 1.53535e-07);
    }
    inlet
    {
        type            calculated;
        value           uniform -0.0106584;
    }
    outlet
    {
        type            calculated;
        value           nonuniform List<scalar> 2(0.0123319 0.00356968);
    }
}


// ************************************************************************* //
