/*--------------------------------*- C++ -*----------------------------------*\
  =========                 |
  \\      /  F ield         | OpenFOAM: The Open Source CFD Toolbox
   \\    /   O peration     | Website:  https://openfoam.org
    \\  /    A nd           | Version:  6
     \\/     M anipulation  |
\*---------------------------------------------------------------------------*/
FoamFile
{
    version     2.0;
    format      ascii;
    class       volVectorField;
    location    "2140";
    object      U;
}
// * * * * * * * * * * * * * * * * * * * * * * * * * * * * * * * * * * * * * //

dimensions      [0 1 -1 0 0 0 0];

internalField   nonuniform List<vector> 
458
(
(0.0348275 0.0885215 0)
(-0.172079 0.0265831 0)
(-0.199345 0.0191128 0)
(-0.23322 0.0130811 0)
(-0.258392 0.00641401 0)
(-0.273597 -0.000804239 0)
(-0.276727 -0.0087772 0)
(-0.265481 -0.0177767 0)
(-0.239425 -0.0274252 0)
(-0.199716 -0.0361097 0)
(-0.150452 -0.0420496 0)
(-0.0978371 -0.0436499 0)
(-0.0487369 -0.039081 0)
(-0.00627898 -0.0236884 0)
(-0.0102693 0.00977 0)
(-0.0102379 0.0105126 0)
(-0.03726 -0.0174878 0)
(-0.01451 -0.0291047 0)
(0.0136707 -0.0251833 0)
(0.0334414 -0.0178891 0)
(0.0480579 -0.00955473 0)
(0.0568171 -0.00517633 0)
(0.0606959 -0.0036325 0)
(0.0621315 -0.00308289 0)
(0.062781 -0.00275987 0)
(0.0630908 -0.00250938 0)
(0.0630299 -0.0022416 0)
(0.0624323 -0.00179758 0)
(0.0608409 -0.000838913 0)
(0.057239 0.0010744 0)
(0.0505195 0.00317065 0)
(0.0451147 0.00508645 0)
(-0.0141468 0.0219482 0)
(0.214276 0.181888 0)
(-0.162148 0.0709913 0)
(-0.16294 0.0577612 0)
(-0.198654 0.0457427 0)
(-0.22413 0.0319882 0)
(-0.240106 0.0161763 0)
(-0.24461 -0.00240837 0)
(-0.235115 -0.0239641 0)
(-0.211869 -0.0461665 0)
(-0.176488 -0.0649232 0)
(-0.133361 -0.0764239 0)
(-0.0881327 -0.0781977 0)
(-0.046266 -0.0687307 0)
(-0.0100338 -0.0460214 0)
(0.0194047 -0.0133866 0)
(0.0442377 0.00784629 0)
(0.0548448 0.0347569 0)
(-0.0118107 0.0706826 0)
(0.0670398 0.0439818 0)
(0.0102905 -0.0218336 0)
(0.0265196 -0.0378989 0)
(0.0407478 -0.035645 0)
(0.0531368 -0.0273412 0)
(0.059559 -0.0120934 0)
(0.0611791 -0.00275359 0)
(0.0612289 0.00074548 0)
(0.0613935 0.00202279 0)
(0.0617188 0.00272191 0)
(0.061944 0.00322173 0)
(0.0620015 0.00367488 0)
(0.0618975 0.00440715 0)
(0.0611864 0.00620518 0)
(0.0577897 0.0112237 0)
(0.0490989 0.0155329 0)
(0.0476934 0.0187044 0)
(-0.0584281 0.0475501 0)
(0.379538 0.272954 0)
(-0.180118 0.113731 0)
(-0.123511 0.0941075 0)
(-0.159196 0.0724333 0)
(-0.182597 0.0495027 0)
(-0.198408 0.0236437 0)
(-0.204061 -0.00653244 0)
(-0.195373 -0.0409756 0)
(-0.173592 -0.0757756 0)
(-0.141427 -0.103644 0)
(-0.103845 -0.118949 0)
(-0.0658998 -0.119154 0)
(-0.0318278 -0.10412 0)
(-0.00228228 -0.074402 0)
(0.0220258 -0.0400786 0)
(0.0375926 -0.0152233 0)
(0.0431758 0.0131607 0)
(-0.0236638 0.0623179 0)
(0.122492 -0.00753462 0)
(0.072512 -0.0320922 0)
(0.0643139 -0.0419295 0)
(0.0672624 -0.0417568 0)
(0.0718727 -0.0380436 0)
(0.0734911 -0.0282277 0)
(0.064368 -0.018329 0)
(0.0574136 -0.013027 0)
(0.0548149 -0.0100787 0)
(0.0541234 -0.00818591 0)
(0.0538893 -0.00689746 0)
(0.0539597 -0.0059026 0)
(0.054759 -0.00475357 0)
(0.0572098 -0.00139875 0)
(0.0561043 0.0149939 0)
(0.0445883 0.0258696 0)
(0.0541331 0.0332474 0)
(-0.0993769 0.0727946 0)
(0.530033 0.346651 0)
(-0.216671 0.151753 0)
(-0.0801991 0.125834 0)
(-0.115538 0.0962953 0)
(-0.133417 0.0672237 0)
(-0.146929 0.0337642 0)
(-0.152515 -0.00710825 0)
(-0.142621 -0.0550487 0)
(-0.121289 -0.102302 0)
(-0.0929811 -0.137833 0)
(-0.0625349 -0.15542 0)
(-0.0335759 -0.153425 0)
(-0.0088018 -0.133438 0)
(0.0128613 -0.0979269 0)
(0.0304285 -0.0589778 0)
(0.0443529 -0.0229016 0)
(0.0599522 0.0131452 0)
(0.0588209 0.0534375 0)
(0.100333 0.061503 0)
(0.0988172 -0.00244333 0)
(0.0851527 -0.02939 0)
(0.078469 -0.0376907 0)
(0.0736176 -0.0383939 0)
(0.0670222 -0.0341072 0)
(0.0666031 -0.0208386 0)
(0.0772788 -0.0138301 0)
(0.0862416 -0.0101072 0)
(0.0916404 -0.00782414 0)
(0.0948796 -0.00591636 0)
(0.0962854 -0.00385533 0)
(0.0945169 -0.00118986 0)
(0.0882544 0.00248051 0)
(0.075712 0.00774307 0)
(0.0597984 0.025098 0)
(0.0440615 0.0405838 0)
(0.0629776 0.0533454 0)
(-0.131385 0.0942792 0)
(0.662687 0.403808 0)
(-0.262355 0.182676 0)
(-0.0350345 0.145255 0)
(-0.0687504 0.111318 0)
(-0.0779473 0.0792328 0)
(-0.0862949 0.0412509 0)
(-0.0890504 -0.00798423 0)
(-0.0740314 -0.0688081 0)
(-0.0534853 -0.125894 0)
(-0.0315819 -0.165066 0)
(-0.0112778 -0.181836 0)
(0.00615901 -0.175988 0)
(0.0193231 -0.151483 0)
(0.0303411 -0.114542 0)
(0.040191 -0.072963 0)
(0.0494355 -0.0337281 0)
(0.0619344 0.000669926 0)
(0.076038 0.0197121 0)
(0.0903276 -0.000571034 0)
(0.0896854 -0.0213753 0)
(0.082619 -0.0300354 0)
(0.0738124 -0.03255 0)
(0.0655676 -0.0316291 0)
(0.0586232 -0.0266317 0)
(0.0568418 -0.0155115 0)
(0.0603952 -0.00902607 0)
(0.0647364 -0.00637157 0)
(0.0684595 -0.00482909 0)
(0.071702 -0.00274896 0)
(0.0742087 0.000781728 0)
(0.0750578 0.00596884 0)
(0.0731634 0.0129869 0)
(0.068254 0.0224379 0)
(0.061207 0.0371775 0)
(0.0500552 0.0536297 0)
(0.0748584 0.0727488 0)
(-0.00684568 0.101382 0)
(0.0557875 0.150675 0)
(-0.0835207 0.0748398 0)
(-0.277798 0.000487353 0)
(0.761894 0.451323 0)
(-0.308552 0.203337 0)
(0.0024288 0.143884 0)
(-0.0205861 0.116258 0)
(-0.0197927 0.0857219 0)
(-0.0215027 0.0472961 0)
(-0.0143179 -0.00693423 0)
(0.0103107 -0.0859181 0)
(0.026921 -0.146186 0)
(0.0388237 -0.182417 0)
(0.0460448 -0.194548 0)
(0.0488938 -0.185049 0)
(0.0486294 -0.158121 0)
(0.0472247 -0.119921 0)
(0.0460509 -0.0779441 0)
(0.0464677 -0.0397126 0)
(0.0508196 -0.00999623 0)
(0.0599684 0.00481946 0)
(0.0662452 -0.00105542 0)
(0.0649921 -0.0110164 0)
(0.0586066 -0.018808 0)
(0.0504357 -0.0229117 0)
(0.0427978 -0.0236607 0)
(0.0368218 -0.0211342 0)
(0.0342704 -0.0157702 0)
(0.0354196 -0.0122938 0)
(0.0383735 -0.0108624 0)
(0.0420296 -0.00977423 0)
(0.0460894 -0.0076381 0)
(0.0502719 -0.00338377 0)
(0.0544824 0.00368458 0)
(0.0569992 0.0131871 0)
(0.0581652 0.0249443 0)
(0.05929 0.0395781 0)
(0.0583664 0.0560001 0)
(0.0797082 0.0766959 0)
(0.0654477 0.0889856 0)
(0.099722 0.0967325 0)
(0.117478 0.0571991 0)
(-0.136896 -0.0299288 0)
(0.815616 0.494188 0)
(-0.334124 0.187369 0)
(0.0322387 0.093799 0)
(0.03906 0.101054 0)
(0.0459273 0.083001 0)
(0.0516187 0.0393725 0)
(0.0790914 -0.0311678 0)
(0.103104 -0.103699 0)
(0.113282 -0.15701 0)
(0.112859 -0.186326 0)
(0.104581 -0.192427 0)
(0.0907905 -0.178774 0)
(0.0740957 -0.14977 0)
(0.0575024 -0.111566 0)
(0.0429727 -0.0709148 0)
(0.0326174 -0.0357009 0)
(0.0281008 -0.0107618 0)
(0.0295005 0.000986253 0)
(0.0311358 -0.000284025 0)
(0.0296344 -0.00657133 0)
(0.0249828 -0.0126318 0)
(0.0188634 -0.01637 0)
(0.0128381 -0.0177425 0)
(0.00803172 -0.0171042 0)
(0.00567065 -0.0151952 0)
(0.00601276 -0.0141009 0)
(0.00805212 -0.0139674 0)
(0.0110505 -0.0137416 0)
(0.0148458 -0.0123609 0)
(0.0195237 -0.00873891 0)
(0.0256927 -0.00163443 0)
(0.0333019 0.00886979 0)
(0.0400681 0.0208906 0)
(0.0478768 0.03416 0)
(0.0558763 0.0479597 0)
(0.0754513 0.0644571 0)
(0.0882325 0.0697715 0)
(0.11967 0.0632098 0)
(0.163391 0.0513058 0)
(-0.0203512 0.0954878 0)
(0.921872 0.497287 0)
(-0.0766814 0.167418 0)
(0.110606 0.0261618 0)
(0.163734 0.0227949 0)
(0.161394 0.0155502 0)
(0.162859 -0.0293584 0)
(0.196482 -0.0804063 0)
(0.211265 -0.125539 0)
(0.205356 -0.158274 0)
(0.185089 -0.173979 0)
(0.155585 -0.171672 0)
(0.121087 -0.153973 0)
(0.0852928 -0.124276 0)
(0.0523664 -0.0880777 0)
(0.0244608 -0.051064 0)
(0.00511563 -0.0219335 0)
(-0.00463179 -0.00443246 0)
(-0.00655968 0.00175442 0)
(-0.00644136 0.000659849 0)
(-0.00764242 -0.00366563 0)
(-0.0109424 -0.00801481 0)
(-0.0154408 -0.0110782 0)
(-0.020075 -0.0128479 0)
(-0.0239391 -0.0136841 0)
(-0.0263211 -0.0141352 0)
(-0.0272127 -0.0148864 0)
(-0.0271766 -0.0158702 0)
(-0.0265947 -0.0165839 0)
(-0.0254672 -0.0164981 0)
(-0.0234877 -0.0150353 0)
(-0.0198622 -0.0114644 0)
(-0.0117088 -0.00490821 0)
(-9.46155e-05 0.00445989 0)
(0.0110857 0.0137605 0)
(0.0226892 0.0208654 0)
(0.0398993 0.0277364 0)
(0.0554298 0.0224385 0)
(0.0795693 0.00564793 0)
(0.146408 0.0479778 0)
(-0.428338 0.212665 0)
(1.06591 0.444166 0)
(0.518239 0.298302 0)
(0.529533 0.24986 0)
(0.518389 0.182908 0)
(0.469833 0.122442 0)
(0.433151 0.0601162 0)
(0.392042 -0.0074203 0)
(0.342838 -0.0669769 0)
(0.289081 -0.10786 0)
(0.232745 -0.12661 0)
(0.175365 -0.125099 0)
(0.118908 -0.108912 0)
(0.065461 -0.0822868 0)
(0.0202399 -0.0512657 0)
(-0.0160985 -0.0208492 0)
(-0.0329454 -0.00607564 0)
(-0.0401244 0.000438692 0)
(-0.0416823 0.0022042 0)
(-0.0420615 0.00100537 0)
(-0.0432039 -0.00164177 0)
(-0.0458322 -0.00451887 0)
(-0.0494813 -0.00704589 0)
(-0.0535063 -0.00913517 0)
(-0.0573709 -0.0108637 0)
(-0.0608183 -0.0123657 0)
(-0.0640114 -0.0137471 0)
(-0.0673539 -0.0148455 0)
(-0.0712214 -0.0153019 0)
(-0.0759677 -0.0146313 0)
(-0.0820659 -0.012181 0)
(-0.0902081 -0.00711367 0)
(-0.101118 0.00142924 0)
(-0.112752 0.0133225 0)
(-0.127984 0.028414 0)
(-0.152907 0.0467843 0)
(-0.190232 0.0673933 0)
(-0.241633 0.0862253 0)
(-0.297562 0.0999183 0)
(-0.371646 0.106912 0)
(-0.650669 0.106304 0)
(0.233922 0.0528352 0)
(0.305889 0.115968 0)
(0.321217 0.0913727 0)
(0.299642 0.0395825 0)
(0.275046 -0.0105995 0)
(0.244387 -0.0469376 0)
(0.203099 -0.0684121 0)
(0.154006 -0.0754161 0)
(0.100442 -0.0687 0)
(0.0461702 -0.0529179 0)
(-0.008624 -0.0295165 0)
(-0.0451292 -0.0114993 0)
(-0.0635885 -0.00314127 0)
(-0.0709209 -0.00075938 0)
(-0.0731577 -0.000285672 0)
(-0.0734765 -0.00098419 0)
(-0.0737788 -0.00258541 0)
(-0.0749174 -0.00468051 0)
(-0.0771329 -0.00676863 0)
(-0.0803885 -0.00854818 0)
(-0.0841847 -0.0100194 0)
(-0.0882917 -0.0111409 0)
(-0.092721 -0.0119155 0)
(-0.0976262 -0.0123096 0)
(-0.103158 -0.012133 0)
(-0.109348 -0.0110407 0)
(-0.116066 -0.00856331 0)
(-0.122967 -0.00415707 0)
(-0.129429 0.00273922 0)
(-0.134402 0.012337 0)
(-0.13837 0.0256175 0)
(-0.141807 0.043179 0)
(-0.146018 0.064222 0)
(-0.151772 0.0850512 0)
(-0.155358 0.0955475 0)
(-0.141304 0.0734015 0)
(-0.110249 -0.0250082 0)
(-0.286611 -0.213741 0)
(0.120026 0.324338 0)
(0.00839202 0.203596 0)
(0.0392671 0.118453 0)
(0.0584818 0.0604381 0)
(0.0631305 0.0216257 0)
(0.0601167 -0.00478585 0)
(0.0402035 -0.0199133 0)
(0.00542678 -0.0189566 0)
(-0.0365898 -0.00172143 0)
(-0.0701089 0.0128779 0)
(-0.091222 0.0208804 0)
(-0.100238 0.0232641 0)
(-0.102463 0.0233922 0)
(-0.102409 0.0234448 0)
(-0.101538 0.0241585 0)
(-0.100506 0.0252847 0)
(-0.0997849 0.0264255 0)
(-0.0996583 0.0271755 0)
(-0.100184 0.0271104 0)
(-0.101326 0.0259058 0)
(-0.10312 0.023873 0)
(-0.105496 0.0216291 0)
(-0.108388 0.0194498 0)
(-0.111706 0.017481 0)
(-0.115314 0.0158323 0)
(-0.118997 0.0146131 0)
(-0.122446 0.0139604 0)
(-0.125177 0.014031 0)
(-0.126373 0.015522 0)
(-0.124866 0.0198903 0)
(-0.119076 0.0282964 0)
(-0.107619 0.0417406 0)
(-0.090352 0.0602411 0)
(-0.0683174 0.0804255 0)
(-0.0434464 0.0948381 0)
(-0.00758475 0.0857784 0)
(0.14694 0.00930508 0)
(-0.209928 -0.129684 0)
(-0.422122 -0.516032 0)
(-0.63732 -0.143275 0)
(-0.449398 0.177763 0)
(-0.357931 0.0560826 0)
(-0.213893 -0.00553759 0)
(-0.145602 -0.0477901 0)
(-0.117156 -0.0705426 0)
(-0.112975 -0.071367 0)
(-0.122335 -0.062693 0)
(-0.134854 -0.0549813 0)
(-0.14034 -0.0505108 0)
(-0.138583 -0.0490718 0)
(-0.134122 -0.0499565 0)
(-0.128941 -0.0527782 0)
(-0.124479 -0.0563056 0)
(-0.121035 -0.059949 0)
(-0.118236 -0.063591 0)
(-0.115824 -0.0672876 0)
(-0.113757 -0.070889 0)
(-0.112108 -0.0739041 0)
(-0.111009 -0.0756829 0)
(-0.110623 -0.0757896 0)
(-0.111053 -0.0743579 0)
(-0.11226 -0.0719876 0)
(-0.114071 -0.068916 0)
(-0.116262 -0.0652757 0)
(-0.11855 -0.0610879 0)
(-0.120567 -0.0562784 0)
(-0.121832 -0.0506324 0)
(-0.121711 -0.0438022 0)
(-0.119187 -0.035815 0)
(-0.112354 -0.0266904 0)
(-0.0984067 -0.0158838 0)
(-0.0748452 -0.00248777 0)
(-0.0415515 0.0143627 0)
(0.00931506 0.0362841 0)
(0.0618653 0.0423475 0)
(0.109598 0.024045 0)
(0.172058 -0.015943 0)
(-0.196291 -0.0826857 0)
)
;

boundaryField
{
    floor
    {
        type            noSlip;
    }
    ceiling
    {
        type            noSlip;
    }
    sWall
    {
        type            noSlip;
    }
    nWall
    {
        type            noSlip;
    }
    sideWalls
    {
        type            empty;
    }
    glass1
    {
        type            noSlip;
    }
    glass2
    {
        type            noSlip;
    }
    sun
    {
        type            noSlip;
    }
    Table_master
    {
        type            noSlip;
    }
    Table_slave
    {
        type            noSlip;
    }
    inlet
    {
        type            fixedValue;
        value           uniform (0.46194 -0.191342 0);
    }
    outlet
    {
        type            zeroGradient;
    }
}


// ************************************************************************* //
