/*--------------------------------*- C++ -*----------------------------------*\
  =========                 |
  \\      /  F ield         | OpenFOAM: The Open Source CFD Toolbox
   \\    /   O peration     | Website:  https://openfoam.org
    \\  /    A nd           | Version:  6
     \\/     M anipulation  |
\*---------------------------------------------------------------------------*/
FoamFile
{
    version     2.0;
    format      ascii;
    class       volScalarField;
    location    "1120";
    object      alphat;
}
// * * * * * * * * * * * * * * * * * * * * * * * * * * * * * * * * * * * * * //

dimensions      [1 -1 -1 0 0 0 0];

internalField   nonuniform List<scalar> 
458
(
0.00124414
0.00135527
0.00138596
0.00145229
0.00151338
0.00157122
0.00162909
0.00168785
0.0017359
0.00176611
0.00176954
0.00173741
0.00165867
0.00149196
0.00113181
0.000559123
0.000655494
0.00074318
0.000774903
0.000762764
0.000713776
0.00065958
0.000611089
0.000569086
0.000532604
0.000500748
0.000472872
0.000448153
0.00042564
0.000404287
0.000382845
0.000370098
0.000340113
0.00167647
0.00377414
0.00348142
0.00398903
0.00449517
0.00501583
0.00548307
0.00584448
0.00621582
0.00656357
0.00684262
0.00701208
0.00702776
0.00678279
0.00551201
0.0014941
0.00123952
0.00101125
0.000554601
0.00131634
0.00191846
0.00238454
0.00253188
0.00184521
0.00155771
0.00136209
0.00121772
0.0011071
0.00101934
0.000943644
0.000872523
0.000801531
0.000738113
0.000684947
0.000837917
0.000447104
0.00203697
0.00507214
0.00418629
0.00510414
0.00548991
0.00576081
0.00596904
0.00616134
0.00642928
0.00675519
0.00711142
0.00746038
0.00773556
0.00783139
0.00737865
0.00601341
0.00455721
0.0011944
0.000854259
0.0014742
0.00214513
0.00281243
0.00300297
0.000959369
0.000839906
0.000740513
0.000660007
0.000595039
0.00054239
0.000499593
0.000464982
0.000438061
0.00048543
0.000562184
0.000983175
0.000528375
0.0023838
0.00647791
0.00407211
0.0052875
0.0054985
0.00547734
0.00545776
0.00554994
0.00576805
0.00609083
0.00650093
0.00695803
0.00735782
0.00760857
0.00755112
0.00716009
0.00614501
0.00337362
0.00137596
0.00175183
0.00240813
0.0032118
0.00390848
0.00394263
0.00108052
0.000990421
0.000929047
0.000883749
0.000845448
0.000807374
0.000771229
0.000733042
0.000688409
0.000648441
0.000639026
0.00117177
0.000608552
0.00273785
0.00836873
0.00427109
0.00501897
0.00532044
0.00514001
0.00499315
0.00507678
0.00530725
0.00564345
0.00608584
0.00658724
0.00697903
0.00717352
0.00716798
0.00703063
0.00662525
0.00547845
0.00496516
0.00500085
0.00529189
0.00563865
0.00585136
0.00575501
0.00490989
0.00447536
0.0042359
0.00406438
0.00389082
0.00366747
0.00328729
0.00279777
0.00224101
0.00170471
0.00127868
0.00119142
0.00103432
0.000813319
0.000860759
0.000935588
0.00311666
0.0104976
0.00584895
0.00464675
0.00506386
0.00505289
0.00486527
0.00493492
0.00517019
0.00550683
0.00595575
0.00643649
0.00679923
0.00691467
0.00680416
0.00664652
0.00657551
0.00648084
0.00667556
0.00701334
0.00725016
0.00729208
0.00713218
0.00679782
0.00633108
0.00595194
0.0056567
0.00539658
0.00514114
0.00487001
0.00451983
0.00403971
0.00343244
0.00274558
0.00210988
0.00153004
0.00125758
0.00109691
0.00138122
0.000970514
0.00348933
0.0121021
0.00872476
0.00571071
0.00496922
0.00504013
0.00510349
0.00514034
0.00527421
0.00557145
0.00601343
0.00648992
0.00682232
0.00685868
0.00664932
0.00649788
0.00674688
0.00729948
0.00786204
0.00817933
0.00817965
0.00790713
0.00744589
0.00688455
0.0063255
0.00587555
0.00553485
0.00525853
0.00501679
0.00479978
0.00460236
0.00434419
0.00391977
0.00335259
0.00276349
0.00219752
0.00182813
0.0016747
0.00159628
0.00115312
0.00357894
0.0112147
0.00952697
0.00799846
0.00682874
0.00631051
0.00582364
0.00549394
0.00549014
0.00577421
0.00623146
0.00670193
0.00698128
0.00691629
0.00665976
0.00672338
0.00743534
0.00801954
0.00832366
0.00830938
0.00797894
0.00740768
0.00670503
0.00599635
0.0054073
0.0049945
0.00471601
0.004516
0.00436798
0.0042682
0.00422389
0.00422598
0.00411294
0.00377583
0.00344729
0.00326424
0.00334396
0.00352996
0.00419315
0.00178525
0.00350479
0.00423034
0.00467526
0.00492477
0.00496201
0.00488874
0.00489232
0.00510066
0.00552056
0.00605433
0.00659944
0.00702805
0.00716474
0.00691742
0.0068474
0.00720846
0.00762581
0.00776864
0.00766466
0.00730184
0.00669395
0.00594331
0.00519387
0.00457878
0.00415312
0.00388205
0.00370017
0.00356195
0.00344412
0.00333347
0.00322003
0.00309547
0.00298247
0.00288465
0.00281983
0.00278328
0.00271382
0.00257089
0.00239722
0.00166672
0.00157968
0.00276037
0.00377646
0.00457224
0.00530122
0.00601032
0.00657182
0.00694764
0.0071916
0.00722431
0.00698629
0.00669754
0.0066987
0.00681821
0.00672623
0.00645532
0.0060282
0.00545322
0.00479202
0.00414592
0.00363155
0.00328502
0.00307255
0.00294213
0.00285553
0.00279237
0.00274398
0.00270824
0.00268817
0.00269441
0.00271014
0.00272415
0.00272485
0.00268171
0.00254872
0.00231444
0.0020242
0.00134113
0.00238084
0.00465387
0.00595191
0.00679257
0.00744604
0.00749578
0.00710386
0.00671042
0.00637247
0.00573436
0.00528126
0.00517615
0.00510484
0.00490505
0.00460398
0.00423073
0.00379316
0.00333277
0.00291759
0.00259468
0.00237195
0.00224347
0.00218324
0.0021702
0.00219138
0.00223855
0.00230457
0.00238096
0.00247038
0.00257302
0.00268286
0.00279072
0.00287845
0.00292223
0.00288131
0.00284563
0.00261999
0.00135861
0.00249159
0.00255349
0.00260943
0.00289321
0.00272894
0.00241409
0.00203342
0.00172842
0.00154189
0.00136507
0.00120957
0.0010879
0.000984901
0.00090686
0.000852631
0.000813014
0.000781155
0.000753746
0.000731116
0.000715845
0.000710147
0.000714421
0.000727107
0.000745758
0.000769323
0.000797249
0.000829376
0.000865895
0.000907408
0.000955213
0.00100961
0.00107019
0.00113727
0.00121115
0.00129188
0.00138862
0.00143093
0.00140159
0.00130364
0.00120555
)
;

boundaryField
{
    floor
    {
        type            compressible::alphatWallFunction;
        Prt             0.85;
        value           nonuniform List<scalar> 
36
(
0.000160688
7.82036e-05
9.26097e-05
0.000105494
0.00011011
0.000108347
0.000101196
9.32155e-05
8.60072e-05
7.97068e-05
7.41876e-05
6.93297e-05
6.50471e-05
6.12228e-05
5.77164e-05
5.43687e-05
5.09842e-05
4.89607e-05
4.41649e-05
4.41643e-05
6.10606e-05
7.3546e-05
8.563e-05
0.000115678
0.000122505
0.000133176
0.000160686
0.000210158
0.000175561
0.000143844
7.82027e-05
0.000143842
7.75199e-05
0.000169348
0.000121556
0.000194194
)
;
    }
    ceiling
    {
        type            compressible::alphatWallFunction;
        Prt             0.85;
        value           nonuniform List<scalar> 
43
(
0.000340273
0.000348136
0.000355227
0.000391032
0.000370435
0.000330534
0.000281527
0.00024154
0.000216705
0.00019285
0.000171579
0.000154717
0.000140272
0.000129209
0.000121456
0.000115755
0.000111147
0.000107164
0.000103862
0.000101627
0.000100792
0.000101419
0.000103276
0.000106
0.00010943
0.000113478
0.000118115
0.000123359
0.000129289
0.000136078
0.000143756
0.00015225
0.00016159
0.000171805
0.000182886
0.000196061
0.000201791
0.00019782
0.000184495
0.000171037
0.000467122
0.000555328
0.000326053
)
;
    }
    sWall
    {
        type            compressible::alphatWallFunction;
        Prt             0.85;
        value           uniform 0.00033903;
    }
    nWall
    {
        type            compressible::alphatWallFunction;
        Prt             0.85;
        value           nonuniform List<scalar> 6(0.000132957 0.000137898 0.000163429 0.000189266 0.000191643 0.000170696);
    }
    sideWalls
    {
        type            empty;
    }
    glass1
    {
        type            compressible::alphatWallFunction;
        Prt             0.85;
        value           nonuniform List<scalar> 9(0.000171662 0.000229169 0.000275994 0.00032029 0.000364874 0.000411955 0.000457736 0.000468806 0.000459999);
    }
    glass2
    {
        type            compressible::alphatWallFunction;
        Prt             0.85;
        value           nonuniform List<scalar> 2(0.000247086 0.000231544);
    }
    sun
    {
        type            compressible::alphatWallFunction;
        Prt             0.85;
        value           nonuniform List<scalar> 
14
(
0.000176212
0.000191382
0.000195551
0.000204525
0.00021275
0.000220504
0.000228229
0.000236042
0.000242409
0.000246401
0.000246854
0.000242608
0.000232164
0.000209869
)
;
    }
    Table_master
    {
        type            compressible::alphatWallFunction;
        Prt             0.85;
        value           nonuniform List<scalar> 9(0.00013668 0.000119643 0.000105248 9.34174e-05 8.37418e-05 7.58052e-05 6.92829e-05 6.39567e-05 5.97792e-05);
    }
    Table_slave
    {
        type            compressible::alphatWallFunction;
        Prt             0.85;
        value           nonuniform List<scalar> 9(0.00015371 0.00014107 0.000132384 0.00012593 0.000120442 0.000114958 0.000109722 0.000104159 9.76123e-05);
    }
    inlet
    {
        type            fixedValue;
        value           uniform 1.94e-05;
    }
    outlet
    {
        type            zeroGradient;
    }
}


// ************************************************************************* //
