/*--------------------------------*- C++ -*----------------------------------*\
  =========                 |
  \\      /  F ield         | OpenFOAM: The Open Source CFD Toolbox
   \\    /   O peration     | Website:  https://openfoam.org
    \\  /    A nd           | Version:  6
     \\/     M anipulation  |
\*---------------------------------------------------------------------------*/
FoamFile
{
    version     2.0;
    format      ascii;
    class       volScalarField;
    location    "1120";
    object      nut;
}
// * * * * * * * * * * * * * * * * * * * * * * * * * * * * * * * * * * * * * //

dimensions      [0 2 -1 0 0 0 0];

internalField   nonuniform List<scalar> 
458
(
0.00106945
0.0011639
0.00119021
0.00124716
0.0012996
0.00134926
0.00139894
0.00144937
0.0014906
0.00151649
0.0015194
0.0014918
0.0014242
0.00128112
0.000972005
0.0004804
0.000563161
0.00063848
0.000665746
0.000655332
0.000613254
0.000566702
0.000525048
0.000488968
0.000457629
0.000430264
0.000406319
0.000385087
0.000365748
0.000347405
0.000328986
0.00031804
0.000292296
0.001442
0.00324165
0.00298999
0.00342595
0.00386067
0.00430784
0.0047091
0.00501941
0.00533807
0.0056363
0.00587546
0.00602067
0.00603415
0.00582409
0.00473325
0.00128305
0.00106447
0.000868491
0.000476535
0.00113087
0.00164812
0.00204858
0.00217524
0.00158531
0.00133831
0.00117025
0.00104622
0.000951189
0.000875787
0.00081076
0.00074966
0.000688671
0.000634193
0.000588526
0.00071999
0.000384231
0.00175326
0.00435727
0.00359579
0.00438431
0.00471588
0.00494875
0.0051277
0.00529283
0.00552254
0.00580164
0.0061066
0.00640559
0.0066418
0.00672451
0.0063362
0.00516404
0.00391363
0.00102579
0.000733927
0.00126646
0.00184286
0.00241625
0.0025801
0.000824274
0.000721634
0.000636238
0.00056707
0.000511251
0.000466017
0.000429246
0.00039951
0.000376381
0.000417087
0.000483044
0.0008448
0.000454074
0.00205318
0.0055661
0.00349817
0.00454254
0.00472426
0.00470651
0.00468999
0.00476921
0.00495599
0.00523199
0.00558275
0.00597425
0.00631739
0.00653326
0.00648454
0.00614909
0.00527746
0.00289742
0.00118177
0.00150469
0.00206859
0.00275925
0.00335815
0.00338782
0.000928545
0.000851164
0.000798455
0.000759553
0.000726656
0.000693946
0.000662891
0.000630076
0.000591718
0.000557312
0.000549168
0.00100694
0.000522992
0.00235971
0.00719271
0.00366959
0.0043124
0.00457208
0.00441775
0.00429215
0.00436421
0.00456141
0.00484851
0.00522658
0.00565585
0.00599211
0.00615979
0.00615588
0.00603847
0.00569049
0.00470559
0.0042649
0.00429593
0.00454645
0.00484499
0.00502841
0.00494616
0.00422023
0.003847
0.00364135
0.00349405
0.00334494
0.00315297
0.00282612
0.00240523
0.00192653
0.00146538
0.00109905
0.00102394
0.000888921
0.000699198
0.000740174
0.000804525
0.00268785
0.00902558
0.00502627
0.00399304
0.00435206
0.00434348
0.00418323
0.00424349
0.0044445
0.00473154
0.0051149
0.00552633
0.00583768
0.0059377
0.00584395
0.00570939
0.0056488
0.00556767
0.00573534
0.00602617
0.00623042
0.00626727
0.0061306
0.00584383
0.00544306
0.00511743
0.0048638
0.00464029
0.00442071
0.00418758
0.00388639
0.00347345
0.00295115
0.00236043
0.00181371
0.00131511
0.00108087
0.000942903
0.00118741
0.000834447
0.00301085
0.0104109
0.0075013
0.00490907
0.00427179
0.00433339
0.00438903
0.00442076
0.00453411
0.00478684
0.00516397
0.00557177
0.00585738
0.00588997
0.00571179
0.00558287
0.00579749
0.00627277
0.00675675
0.00703017
0.00703126
0.0067978
0.00640195
0.00591984
0.00543949
0.00505279
0.00475994
0.00452237
0.00431449
0.0041278
0.0039579
0.0037357
0.00337053
0.00288261
0.00237587
0.00188909
0.00157144
0.00143958
0.00137223
0.000991377
0.0030906
0.00966254
0.00820299
0.00688366
0.00587553
0.00542942
0.00501072
0.00472537
0.00471889
0.0049595
0.00534969
0.00575286
0.00599383
0.00594025
0.00572214
0.00577831
0.0063911
0.0068938
0.00715579
0.00714418
0.00686075
0.00637014
0.00576635
0.00515718
0.00465075
0.00429581
0.00405631
0.00388429
0.00375693
0.00367104
0.00363282
0.00363445
0.00353703
0.00324691
0.00296419
0.00280658
0.002875
0.00303498
0.00360542
0.0015358
0.00302992
0.00365333
0.00403426
0.00424619
0.0042756
0.00421059
0.00421081
0.00438518
0.00474102
0.00519585
0.00566261
0.0060317
0.00615211
0.00594304
0.00588574
0.0061974
0.00655689
0.00668016
0.00659121
0.00627966
0.00575727
0.00511198
0.00446757
0.00393861
0.00357252
0.00333937
0.00318291
0.00306398
0.00296259
0.00286737
0.00276975
0.00266259
0.00256541
0.00248131
0.00242566
0.00239441
0.00233493
0.00221222
0.00206298
0.00143465
0.00133528
0.00234676
0.00322191
0.00390661
0.00453189
0.00514117
0.00562565
0.00595269
0.0061676
0.00620124
0.00600241
0.00575768
0.00576023
0.00586371
0.00578499
0.00555228
0.00518519
0.00469084
0.00412225
0.00356656
0.00312414
0.00282606
0.00264329
0.00253109
0.00245658
0.00240224
0.00236062
0.00232987
0.00231261
0.00231799
0.00233155
0.00234367
0.00234438
0.00230743
0.00219319
0.00199178
0.00174214
0.00115434
0.00201495
0.00395748
0.00507564
0.00580106
0.00636588
0.00641569
0.00608762
0.00575769
0.00547372
0.00492889
0.0045413
0.00445187
0.00439098
0.00421938
0.00396057
0.00363961
0.00326328
0.00286727
0.00251013
0.00223234
0.00204073
0.0019302
0.00187838
0.00186716
0.00188539
0.00192597
0.00198278
0.00204851
0.00212546
0.00221377
0.00230831
0.00240115
0.00247672
0.00251451
0.00247945
0.00244892
0.00225473
0.00116934
0.00211917
0.00217152
0.00221907
0.00246886
0.00233361
0.00206796
0.00174463
0.0014846
0.00132522
0.00117375
0.00104033
0.000935823
0.000847304
0.000780212
0.000733584
0.000699516
0.000672119
0.000648545
0.00062908
0.000615945
0.000611045
0.000614724
0.00062564
0.000641687
0.000661963
0.00068599
0.000713633
0.000745055
0.000780774
0.000821906
0.000868712
0.000920839
0.000978558
0.00104214
0.00111163
0.0011949
0.00123135
0.00120614
0.00112186
0.00103759
)
;

boundaryField
{
    floor
    {
        type            nutkWallFunction;
        Cmu             0.09;
        kappa           0.41;
        E               9.8;
        value           nonuniform List<scalar> 
36
(
0.000117419
5.72052e-05
6.7728e-05
7.71397e-05
8.05128e-05
7.92265e-05
7.40033e-05
6.81736e-05
6.29075e-05
5.83043e-05
5.42717e-05
5.0722e-05
4.75925e-05
4.47978e-05
4.22352e-05
3.97884e-05
3.73145e-05
3.58357e-05
3.23308e-05
3.23307e-05
4.46841e-05
5.38114e-05
6.26455e-05
8.46281e-05
8.96382e-05
9.74411e-05
0.000117419
0.000153529
0.000128275
0.000105124
5.72052e-05
0.000105124
5.67084e-05
0.000123748
8.8877e-05
0.000141894
)
;
    }
    ceiling
    {
        type            nutkWallFunction;
        Cmu             0.09;
        kappa           0.41;
        E               9.8;
        value           nonuniform List<scalar> 
43
(
0.000246191
0.000251845
0.000256968
0.000283771
0.000269366
0.000240754
0.000205368
0.000176385
0.000158344
0.00014097
0.000125454
0.000113141
0.000102587
9.4502e-05
8.88349e-05
8.46673e-05
8.12982e-05
7.83862e-05
7.5972e-05
7.43379e-05
7.37272e-05
7.41857e-05
7.55444e-05
7.75366e-05
8.00452e-05
8.3006e-05
8.63971e-05
9.02329e-05
9.457e-05
9.95357e-05
0.000105151
0.000111364
0.000118195
0.000125667
0.000133774
0.000143415
0.000147611
0.00014471
0.000134964
0.000125135
0.000343195
0.000407602
0.000234815
)
;
    }
    sWall
    {
        type            nutkWallFunction;
        Cmu             0.09;
        kappa           0.41;
        E               9.8;
        value           uniform 0.000246257;
    }
    nWall
    {
        type            nutkWallFunction;
        Cmu             0.09;
        kappa           0.41;
        E               9.8;
        value           nonuniform List<scalar> 6(9.74417e-05 0.000101045 0.00011971 0.000138739 0.000140475 0.000125142);
    }
    sideWalls
    {
        type            empty;
    }
    glass1
    {
        type            nutkWallFunction;
        Cmu             0.09;
        kappa           0.41;
        E               9.8;
        value           nonuniform List<scalar> 9(0.000128964 0.000171812 0.000206648 0.000239575 0.000272697 0.000307651 0.000341623 0.000349961 0.000343643);
    }
    glass2
    {
        type            nutkWallFunction;
        Cmu             0.09;
        kappa           0.41;
        E               9.8;
        value           nonuniform List<scalar> 2(0.000182234 0.000170843);
    }
    sun
    {
        type            nutkWallFunction;
        Cmu             0.09;
        kappa           0.41;
        E               9.8;
        value           nonuniform List<scalar> 
14
(
0.00012886
0.000139829
0.000142867
0.000149417
0.00015542
0.000161079
0.000166717
0.000172419
0.000177063
0.000179972
0.000180298
0.000177197
0.000169575
0.000153308
)
;
    }
    Table_master
    {
        type            nutkWallFunction;
        Cmu             0.09;
        kappa           0.41;
        E               9.8;
        value           nonuniform List<scalar> 9(9.98196e-05 8.7377e-05 7.68641e-05 6.82244e-05 6.11582e-05 5.53621e-05 5.05988e-05 4.6709e-05 4.36583e-05);
    }
    Table_slave
    {
        type            nutkWallFunction;
        Cmu             0.09;
        kappa           0.41;
        E               9.8;
        value           nonuniform List<scalar> 9(0.000112276 0.000103049 9.67079e-05 9.19965e-05 8.79902e-05 8.39852e-05 8.01619e-05 7.60984e-05 7.13159e-05);
    }
    inlet
    {
        type            calculated;
        value           uniform 0.000167705;
    }
    outlet
    {
        type            calculated;
        value           nonuniform List<scalar> 2(0.00211917 0.00217152);
    }
}


// ************************************************************************* //
