/*--------------------------------*- C++ -*----------------------------------*\
  =========                 |
  \\      /  F ield         | OpenFOAM: The Open Source CFD Toolbox
   \\    /   O peration     | Website:  https://openfoam.org
    \\  /    A nd           | Version:  6
     \\/     M anipulation  |
\*---------------------------------------------------------------------------*/
FoamFile
{
    version     2.0;
    format      ascii;
    class       volScalarField;
    location    "9200";
    object      k;
}
// * * * * * * * * * * * * * * * * * * * * * * * * * * * * * * * * * * * * * //

dimensions      [0 2 -2 0 0 0 0];

internalField   nonuniform List<scalar> 
778
(
0.00158601
0.0018013
0.0017882
0.00194679
0.00209801
0.00224022
0.00237678
0.00251222
0.00265235
0.00280543
0.00295536
0.00310138
0.00324867
0.00341094
0.00358452
0.000792457
0.00162558
0.00165165
0.00157245
0.0014445
0.00128217
0.00113016
0.00099868
0.000887111
0.00079266
0.000712941
0.000644924
0.000585926
0.000533414
0.00048468
0.000436223
0.000397936
0.000326082
0.00340714
0.00643399
0.00268775
0.00274631
0.002888
0.00305454
0.00323479
0.00343037
0.00364331
0.00387326
0.00412491
0.00437826
0.00459375
0.00469894
0.00459343
0.004297
0.00390593
0.00357913
0.00253847
0.00281384
0.00295565
0.00289731
0.00266383
0.00226435
0.00190493
0.00160875
0.00136917
0.00117551
0.00101686
0.000885155
0.000773943
0.000681155
0.00061517
0.000574693
0.0008647
0.000524239
0.00549109
0.0127827
0.00347832
0.00321227
0.00329759
0.00345539
0.00363667
0.00384064
0.00407064
0.00432685
0.0046345
0.00500948
0.00544944
0.0059591
0.00653077
0.00686026
0.006278
0.00538601
0.00403755
0.00416981
0.00417344
0.00397582
0.00357791
0.00266598
0.00201552
0.00157567
0.00126926
0.00104914
0.000886807
0.000764542
0.000671793
0.000603637
0.000551448
0.000548718
0.00116633
0.000678694
0.00797409
0.0217617
0.00449187
0.00339085
0.00334157
0.00343807
0.00354934
0.00366864
0.00380861
0.00399056
0.00425804
0.00464707
0.00516969
0.00582394
0.00655418
0.00713504
0.00722901
0.00724656
0.00534105
0.00554624
0.00537411
0.0051247
0.0047866
0.00434814
0.00345615
0.00285938
0.00243616
0.00210981
0.00185023
0.0016317
0.00143831
0.00125835
0.0010775
0.000800642
0.000659763
0.00142341
0.000823075
0.0108772
0.0336401
0.00621425
0.00342512
0.00315829
0.00316689
0.00318942
0.00320958
0.00325166
0.00336039
0.00359374
0.00398792
0.00455204
0.00527554
0.00608614
0.00681724
0.00728215
0.00764148
0.00751227
0.00665032
0.00607055
0.00557744
0.00509837
0.00462929
0.00412336
0.00366581
0.00327495
0.00293711
0.00263068
0.0023471
0.00207853
0.00181789
0.00155457
0.0012218
0.000930194
0.00119146
0.00121712
0.00117111
0.00205947
0.00189058
0.014176
0.047606
0.00928681
0.00349027
0.00290856
0.00282265
0.00276421
0.00269925
0.00266383
0.00273407
0.00298019
0.00341351
0.00402279
0.00479741
0.00565337
0.00646098
0.00706706
0.00740398
0.00731919
0.00678599
0.00621222
0.00563549
0.00507354
0.00455583
0.00409145
0.00369582
0.00336308
0.00307355
0.00280641
0.00255093
0.0022983
0.00204167
0.00177362
0.00147132
0.00117801
0.00111274
0.00111234
0.00171876
0.00512567
0.00270119
0.0179938
0.0606129
0.0143651
0.00382015
0.00271528
0.00252932
0.00241162
0.00229373
0.00222068
0.00231125
0.0026301
0.00313931
0.00380242
0.00463279
0.0055301
0.00636788
0.0070007
0.00732622
0.00725149
0.00681528
0.00621345
0.0055538
0.00491152
0.00434274
0.0038726
0.00350057
0.00320678
0.0029618
0.00274115
0.00252861
0.00231283
0.00208666
0.00184508
0.00158287
0.00132641
0.00115935
0.00109328
0.00156908
0.00636161
0.00376025
0.021643
0.070486
0.0214433
0.00510387
0.00274302
0.00237178
0.00220995
0.00208159
0.00202588
0.00221911
0.00264971
0.00323156
0.0039391
0.0047781
0.00570383
0.00657805
0.00722639
0.00751446
0.00738342
0.00689529
0.00619797
0.00542739
0.00469222
0.00406508
0.0035749
0.00321285
0.00294795
0.00274131
0.0025643
0.00239552
0.00222142
0.00203465
0.00183162
0.00161245
0.00139495
0.00122754
0.00115923
0.00216247
0.0139579
0.00647816
0.022834
0.0694873
0.0325421
0.0110632
0.00406897
0.00258754
0.00223526
0.00210257
0.00218943
0.00251174
0.00300013
0.003603
0.00433598
0.00521928
0.00619394
0.00709606
0.00772303
0.0079258
0.00766559
0.0070266
0.00616736
0.00525132
0.00441021
0.00372446
0.00321806
0.00286997
0.00263651
0.00247004
0.00233691
0.00221137
0.00207872
0.00193199
0.00176873
0.00159065
0.00141092
0.00128107
0.00137076
0.00433349
0.0277515
0.00852364
0.0219174
0.0516238
0.0336451
0.0174391
0.00859051
0.00475975
0.00326071
0.0027292
0.00285212
0.00320967
0.0036717
0.00424779
0.00500083
0.00594874
0.00698756
0.0079
0.00845003
0.00848787
0.00800576
0.00712691
0.00604645
0.00496027
0.00401718
0.00329501
0.00280094
0.00249108
0.00230443
0.00218646
0.00209807
0.00201258
0.00191662
0.00180458
0.00167514
0.00153071
0.00138335
0.00129594
0.00182654
0.0113041
0.0229842
0.00870418
0.0192304
0.0394265
0.0302359
0.0195684
0.0121842
0.00793937
0.00571674
0.00466804
0.00436036
0.00439756
0.0046512
0.00514729
0.0059431
0.00699552
0.00810615
0.0089793
0.009352
0.00909998
0.0082757
0.00706593
0.00572072
0.00447047
0.00347078
0.0027753
0.00235318
0.0021192
0.00199497
0.0019273
0.00187721
0.00182309
0.00175508
0.00166924
0.00156544
0.00144749
0.00133061
0.00130393
0.00233337
0.0111225
0.0211473
0.00863015
0.0159453
0.0315809
0.026649
0.0195396
0.0139768
0.0102843
0.00802679
0.00675044
0.00604697
0.00572851
0.00578186
0.00627838
0.00722158
0.0084369
0.00958692
0.0102972
0.0103159
0.00959361
0.00828787
0.00667307
0.00506913
0.00373441
0.00280185
0.00224139
0.00196089
0.00182099
0.00175216
0.00171825
0.00169061
0.00165517
0.00160515
0.00153732
0.00145347
0.00136036
0.00127833
0.00131275
0.00234106
0.00953443
0.0205855
0.0091013
0.0132639
0.0256776
0.0233549
0.0186924
0.0145852
0.0115891
0.00954385
0.00820903
0.0072986
0.00683878
0.00695967
0.00772839
0.00899638
0.0103872
0.0114233
0.0117108
0.0111
0.00968597
0.00778722
0.00577123
0.00404274
0.00284514
0.00219987
0.00186702
0.00170457
0.00162492
0.00158485
0.00156286
0.00154093
0.00151043
0.00146734
0.00141117
0.00134562
0.00128142
0.00125771
0.00146808
0.00278158
0.00928317
0.0178705
0.0101184
0.0133563
0.0224261
0.0220663
0.0177649
0.0143957
0.0118963
0.0100854
0.00876907
0.00791753
0.00777471
0.00847899
0.00988402
0.0115486
0.0128912
0.0134059
0.0128264
0.0112485
0.008962
0.00651825
0.00431041
0.00296067
0.00221824
0.00184913
0.00166692
0.00157403
0.00152226
0.00148873
0.00146203
0.00143266
0.00139571
0.0013496
0.00129775
0.00125412
0.00126572
0.00148265
0.00222039
0.00410895
0.00993164
0.017664
0.0100876
0.0108797
0.0117682
0.0129257
0.0125537
0.0113749
0.0100747
0.00894622
0.00820197
0.00830094
0.00941771
0.0113034
0.0133821
0.0149722
0.0155306
0.0148067
0.0128246
0.0100924
0.00698967
0.00461215
0.0031081
0.00231804
0.0019322
0.00174154
0.00163708
0.00157099
0.00152156
0.00147812
0.00143519
0.00139022
0.00134244
0.00129317
0.00125475
0.00126825
0.00145065
0.0020579
0.00345334
0.00610006
0.0107037
0.0165222
0.00893866
0.00354123
0.00481898
0.00598805
0.00659205
0.00726988
0.00878443
0.0113031
0.0141421
0.0165699
0.0180067
0.0180791
0.0167123
0.0141422
0.0105257
0.00722911
0.00475461
0.00326076
0.00249899
0.00214581
0.00197269
0.00187166
0.00179951
0.00173988
0.00168611
0.00163527
0.0015862
0.00153864
0.0015013
0.00147633
0.00147856
0.00155864
0.00184617
0.00260326
0.00421988
0.00710165
0.0113073
0.0153502
0.00811682
0.00444659
0.00627851
0.00808983
0.0109964
0.0146684
0.0181295
0.0203769
0.0214521
0.0213832
0.0201492
0.0175748
0.014043
0.0103372
0.0070324
0.00471696
0.00340243
0.00278691
0.0025244
0.00240477
0.00233671
0.00228809
0.00224947
0.00222016
0.0022025
0.00219841
0.0022065
0.00222007
0.00222689
0.00223703
0.00227561
0.00237953
0.00265632
0.00331276
0.00469929
0.00728591
0.0115489
0.017976
0.00873086
0.0150798
0.0245587
0.0181313
0.0143753
0.0169659
0.020651
0.0227734
0.0234769
0.023035
0.0216934
0.0196742
0.0169892
0.0137477
0.0103354
0.00733138
0.00521359
0.00406736
0.00357744
0.00339996
0.00333644
0.00330349
0.003271
0.00323271
0.00319401
0.00316552
0.00315828
0.00318091
0.00323844
0.00333182
0.00345608
0.00359622
0.00374784
0.00398664
0.00439311
0.00509968
0.00638672
0.00883352
0.0143468
0.0180564
0.0103557
0.0138079
0.0170643
0.0178195
0.0207271
0.0216513
0.0220664
0.0210721
0.0192662
0.0171569
0.0149893
0.0128543
0.0107763
0.0087803
0.00699773
0.00561557
0.00476662
0.00435674
0.00420921
0.00419315
0.00423361
0.00428865
0.00433655
0.00437063
0.00439574
0.00442425
0.0044723
0.00455788
0.00470104
0.00492498
0.00525502
0.0057126
0.00630177
0.00698152
0.00776077
0.00875673
0.0102397
0.0126124
0.017325
0.0198737
0.0111972
0.0121329
0.00891495
0.00883009
0.00935952
0.00981365
0.00925989
0.00820934
0.00705333
0.00596872
0.00500139
0.00415137
0.00342541
0.00285514
0.00247532
0.00228116
0.00221085
0.00221286
0.00225031
0.0023028
0.00235996
0.00241702
0.00247313
0.00253063
0.00259477
0.00267351
0.00277763
0.00292104
0.00312007
0.0033906
0.00374265
0.00417564
0.00467974
0.00524571
0.00588099
0.00658903
0.00736346
0.00821574
0.00918614
0.010262
0.00942917
)
;

boundaryField
{
    floor
    {
        type            kqRWallFunction;
        value           nonuniform List<scalar> 
36
(
0.00358452
0.000792457
0.00162558
0.00165165
0.00157245
0.0014445
0.00128217
0.00113016
0.00099868
0.000887111
0.00079266
0.000712941
0.000644924
0.000585926
0.000533414
0.00048468
0.000436223
0.000397936
0.000326082
0.000326082
0.000524239
0.000678694
0.000823075
0.00117111
0.00205947
0.00189058
0.00358452
0.004297
0.00390593
0.00357913
0.000792457
0.00357913
0.00253847
0.00538601
0.00403755
0.00534105
)
;
    }
    ceiling
    {
        type            kqRWallFunction;
        value           nonuniform List<scalar> 
43
(
0.0121329
0.00891495
0.00883009
0.00935952
0.00981365
0.00925989
0.00820934
0.00705333
0.00596872
0.00500139
0.00415137
0.00342541
0.00285514
0.00247532
0.00228116
0.00221085
0.00221286
0.00225031
0.0023028
0.00235996
0.00241702
0.00247313
0.00253063
0.00259477
0.00267351
0.00277763
0.00292104
0.00312007
0.0033906
0.00374265
0.00417564
0.00467974
0.00524571
0.00588099
0.00658903
0.00736346
0.00821574
0.00918614
0.010262
0.00942917
0.0108797
0.0117682
0.00444659
)
;
    }
    sWall
    {
        type            kqRWallFunction;
        value           nonuniform List<scalar> 9(0.0219174 0.0192304 0.0159453 0.0132639 0.0133563 0.0108797 0.0150798 0.0138079 0.0121329);
    }
    nWall
    {
        type            kqRWallFunction;
        value           nonuniform List<scalar> 
14
(
0.00189058
0.00270119
0.00376025
0.00870418
0.00863015
0.0091013
0.0101184
0.0100876
0.00893866
0.00811682
0.00873086
0.0103557
0.0111972
0.00942917
)
;
    }
    sideWalls
    {
        type            empty;
    }
    glass1
    {
        type            kqRWallFunction;
        value           nonuniform List<scalar> 9(0.00158601 0.00340714 0.00549109 0.00797409 0.0108772 0.014176 0.0179938 0.021643 0.022834);
    }
    glass2
    {
        type            kqRWallFunction;
        value           nonuniform List<scalar> 2(0.00647816 0.00852364);
    }
    sun
    {
        type            kqRWallFunction;
        value           nonuniform List<scalar> 
14
(
0.00158601
0.0018013
0.0017882
0.00194679
0.00209801
0.00224022
0.00237678
0.00251222
0.00265235
0.00280543
0.00295536
0.00310138
0.00324867
0.00341094
)
;
    }
    Table_master
    {
        type            kqRWallFunction;
        value           nonuniform List<scalar> 9(0.00266598 0.00201552 0.00157567 0.00126926 0.00104914 0.000886807 0.000764542 0.000671793 0.000603637);
    }
    Table_slave
    {
        type            kqRWallFunction;
        value           nonuniform List<scalar> 9(0.00345615 0.00285938 0.00243616 0.00210981 0.00185023 0.0016317 0.00143831 0.00125835 0.0010775);
    }
    inlet
    {
        type            turbulentIntensityKineticEnergyInlet;
        intensity       0.05;
        value           uniform 0.0009375;
    }
    outlet
    {
        type            zeroGradient;
    }
}


// ************************************************************************* //
