/*--------------------------------*- C++ -*----------------------------------*\
  =========                 |
  \\      /  F ield         | OpenFOAM: The Open Source CFD Toolbox
   \\    /   O peration     | Website:  https://openfoam.org
    \\  /    A nd           | Version:  6
     \\/     M anipulation  |
\*---------------------------------------------------------------------------*/
FoamFile
{
    version     2.0;
    format      ascii;
    class       volVectorField;
    location    "9200";
    object      U;
}
// * * * * * * * * * * * * * * * * * * * * * * * * * * * * * * * * * * * * * //

dimensions      [0 1 -1 0 0 0 0];

internalField   nonuniform List<vector> 
778
(
(0.0656018 0.0794064 0)
(-0.155174 0.0157632 0)
(-0.164297 0.0146216 0)
(-0.192409 0.0122706 0)
(-0.216838 0.00871954 0)
(-0.236889 0.00473813 0)
(-0.252006 0.000411404 0)
(-0.261767 -0.00437302 0)
(-0.265658 -0.00981371 0)
(-0.262678 -0.0161912 0)
(-0.250874 -0.0242616 0)
(-0.22618 -0.0348765 0)
(-0.186069 -0.0503927 0)
(-0.144144 -0.075155 0)
(-0.150024 -0.108536 0)
(0.0546895 0.0354779 0)
(0.0158263 -0.0268891 0)
(0.0450422 -0.0232736 0)
(0.0694759 -0.0161694 0)
(0.0845606 -0.0103609 0)
(0.0917822 -0.00641745 0)
(0.0946196 -0.00433896 0)
(0.0956557 -0.00331756 0)
(0.0961156 -0.00273069 0)
(0.0962927 -0.00231669 0)
(0.0961708 -0.00195116 0)
(0.0956437 -0.00150966 0)
(0.0943829 -0.000754783 0)
(0.0915299 0.000851039 0)
(0.0853136 0.00407815 0)
(0.0737495 0.00779231 0)
(0.0600505 0.0116435 0)
(-0.0078742 0.0300277 0)
(0.258403 0.167391 0)
(-0.161234 0.0483882 0)
(-0.141597 0.0459743 0)
(-0.173997 0.0416057 0)
(-0.199352 0.0356557 0)
(-0.220064 0.0291147 0)
(-0.236083 0.0220426 0)
(-0.247324 0.0142134 0)
(-0.25349 0.00528395 0)
(-0.253801 -0.00516147 0)
(-0.247645 -0.0170865 0)
(-0.233942 -0.0308493 0)
(-0.214039 -0.0480699 0)
(-0.197465 -0.0699471 0)
(-0.193953 -0.0826203 0)
(-0.166358 -0.0425266 0)
(-0.105332 -0.0363408 0)
(-0.0983222 -0.0444388 0)
(0.109358 -0.0421782 0)
(0.0645059 -0.0412369 0)
(0.071992 -0.0323275 0)
(0.0860149 -0.0207686 0)
(0.0939584 -0.0105106 0)
(0.0962159 -0.00364686 0)
(0.0959767 -0.000197202 0)
(0.0955821 0.00124134 0)
(0.0955426 0.00188615 0)
(0.0956233 0.00226206 0)
(0.0956318 0.0025883 0)
(0.0955329 0.00313414 0)
(0.0952424 0.00441841 0)
(0.0939839 0.00773903 0)
(0.0883801 0.016786 0)
(0.0746003 0.0253938 0)
(0.0632241 0.0330406 0)
(-0.051894 0.0637008 0)
(0.429987 0.253951 0)
(-0.194235 0.084753 0)
(-0.112771 0.0784215 0)
(-0.148232 0.0669393 0)
(-0.170657 0.0554783 0)
(-0.188742 0.0437017 0)
(-0.202569 0.0313176 0)
(-0.21225 0.0179834 0)
(-0.217592 0.00338066 0)
(-0.217942 -0.0126425 0)
(-0.212682 -0.0303273 0)
(-0.201575 -0.0499062 0)
(-0.185931 -0.0715629 0)
(-0.169389 -0.0932028 0)
(-0.15101 -0.104547 0)
(-0.120173 -0.0931143 0)
(-0.0794884 -0.0948959 0)
(-0.0713976 -0.107536 0)
(0.0921763 -0.0882565 0)
(0.0626179 -0.0658485 0)
(0.074442 -0.0462204 0)
(0.0881109 -0.0293436 0)
(0.0950054 -0.0150122 0)
(0.0921458 -0.0120383 0)
(0.0879048 -0.00794218 0)
(0.0855313 -0.0057765 0)
(0.0848341 -0.00456119 0)
(0.0848032 -0.00380212 0)
(0.0850536 -0.00322947 0)
(0.0857057 -0.00260009 0)
(0.0874709 -0.00143789 0)
(0.0921645 0.00292606 0)
(0.0903302 0.0251346 0)
(0.0735118 0.0424372 0)
(0.0702316 0.0576058 0)
(-0.0898995 0.101144 0)
(0.578557 0.325835 0)
(-0.240107 0.121801 0)
(-0.080825 0.109207 0)
(-0.121561 0.0898315 0)
(-0.138988 0.0740407 0)
(-0.153042 0.0586022 0)
(-0.163793 0.0427172 0)
(-0.171379 0.0257752 0)
(-0.175581 0.00716971 0)
(-0.175638 -0.0135504 0)
(-0.170944 -0.0364789 0)
(-0.16137 -0.0614564 0)
(-0.147494 -0.0873689 0)
(-0.1305 -0.110295 0)
(-0.109525 -0.123187 0)
(-0.0820322 -0.124512 0)
(-0.0524068 -0.126323 0)
(-0.0332625 -0.123144 0)
(0.0165304 -0.0568079 0)
(0.0609445 -0.093077 0)
(0.0685656 -0.0792662 0)
(0.0791657 -0.0589145 0)
(0.0916505 -0.0396846 0)
(0.102976 -0.0210337 0)
(0.115727 -0.0132563 0)
(0.126941 -0.00883857 0)
(0.132592 -0.00561995 0)
(0.13362 -0.00311397 0)
(0.131136 -0.000892221 0)
(0.12571 0.00127725 0)
(0.117209 0.00366195 0)
(0.104863 0.00672439 0)
(0.0856066 0.0111659 0)
(0.0717089 0.0368702 0)
(0.0603979 0.0606587 0)
(0.07649 0.0835441 0)
(-0.117575 0.137557 0)
(0.705739 0.383673 0)
(-0.287687 0.156993 0)
(-0.0476861 0.13376 0)
(-0.0962776 0.106893 0)
(-0.107723 0.0875636 0)
(-0.116751 0.0691371 0)
(-0.123535 0.0504086 0)
(-0.128188 0.0305494 0)
(-0.130541 0.00868999 0)
(-0.129726 -0.0158455 0)
(-0.125219 -0.0430928 0)
(-0.116584 -0.072692 0)
(-0.103844 -0.102831 0)
(-0.0873429 -0.129094 0)
(-0.0673637 -0.145781 0)
(-0.0439945 -0.152241 0)
(-0.0201184 -0.152324 0)
(0.00043723 -0.143667 0)
(0.0309506 -0.114991 0)
(0.0570992 -0.10938 0)
(0.0706521 -0.0924875 0)
(0.0807623 -0.0713322 0)
(0.0908072 -0.0508914 0)
(0.100358 -0.0328573 0)
(0.109486 -0.0194608 0)
(0.116553 -0.010077 0)
(0.120027 -0.00338229 0)
(0.120277 0.00187249 0)
(0.117912 0.00642295 0)
(0.113299 0.0107851 0)
(0.106461 0.0154709 0)
(0.097329 0.0211816 0)
(0.0854029 0.0292162 0)
(0.0738389 0.0472637 0)
(0.0633331 0.0713697 0)
(0.0950318 0.0995643 0)
(0.0171482 0.138723 0)
(0.096791 0.182824 0)
(0.140583 0.144877 0)
(-0.219191 0.201432 0)
(0.810447 0.431965 0)
(-0.331328 0.190659 0)
(-0.0173056 0.150222 0)
(-0.073352 0.117491 0)
(-0.0785719 0.0954782 0)
(-0.0821891 0.0749075 0)
(-0.0844403 0.0543022 0)
(-0.0854752 0.0326789 0)
(-0.0852168 0.00882299 0)
(-0.0825373 -0.0184392 0)
(-0.0773632 -0.0490437 0)
(-0.0687198 -0.0825157 0)
(-0.056694 -0.116524 0)
(-0.0415895 -0.146338 0)
(-0.0245579 -0.166019 0)
(-0.00612744 -0.174493 0)
(0.0122728 -0.172709 0)
(0.0281949 -0.160953 0)
(0.0463425 -0.139284 0)
(0.0627614 -0.122331 0)
(0.0733946 -0.102514 0)
(0.0810373 -0.0804929 0)
(0.0877722 -0.0591753 0)
(0.0939468 -0.0403188 0)
(0.099295 -0.0251524 0)
(0.103023 -0.0138047 0)
(0.10468 -0.00512087 0)
(0.10431 0.00206624 0)
(0.102212 0.00853655 0)
(0.0986287 0.0148117 0)
(0.0937123 0.0214202 0)
(0.0876874 0.0289944 0)
(0.0808139 0.0384442 0)
(0.0750408 0.0529102 0)
(0.069771 0.0729436 0)
(0.0919494 0.0986829 0)
(0.0739721 0.107444 0)
(0.0909839 0.0476524 0)
(0.146655 -0.0359144 0)
(-0.323797 0.107719 0)
(0.87991 0.474676 0)
(-0.368649 0.220939 0)
(0.00372574 0.155523 0)
(-0.052645 0.121536 0)
(-0.0521851 0.0978152 0)
(-0.051 0.0757824 0)
(-0.048993 0.0540037 0)
(-0.0464763 0.0314967 0)
(-0.0432894 0.00673847 0)
(-0.03733 -0.0223258 0)
(-0.0302503 -0.055389 0)
(-0.0204468 -0.0919683 0)
(-0.00860161 -0.128941 0)
(0.00466545 -0.161313 0)
(0.0177719 -0.181932 0)
(0.0306016 -0.190229 0)
(0.0424334 -0.187194 0)
(0.0527422 -0.17435 0)
(0.0626899 -0.153987 0)
(0.0712258 -0.132344 0)
(0.076703 -0.109356 0)
(0.0801182 -0.085892 0)
(0.0826836 -0.0637529 0)
(0.0849066 -0.0442885 0)
(0.0867487 -0.0282192 0)
(0.0878759 -0.0154521 0)
(0.0880594 -0.00520769 0)
(0.0871478 0.00343545 0)
(0.0853154 0.0111647 0)
(0.082703 0.0185073 0)
(0.0794764 0.025966 0)
(0.075904 0.0340418 0)
(0.0723799 0.0432838 0)
(0.0702791 0.0549667 0)
(0.0689932 0.0694519 0)
(0.0820358 0.0884309 0)
(0.085306 0.091522 0)
(0.0911436 0.0538422 0)
(0.181895 0.0268372 0)
(-0.279206 0.156922 0)
(0.927946 0.517135 0)
(-0.383164 0.234128 0)
(0.0168982 0.132914 0)
(-0.0273045 0.116606 0)
(-0.0265234 0.0948771 0)
(-0.0227095 0.0723839 0)
(-0.0175931 0.05006 0)
(-0.0123173 0.0272103 0)
(-0.00535172 0.00182252 0)
(0.00461897 -0.0307672 0)
(0.0143479 -0.0653601 0)
(0.025669 -0.103386 0)
(0.0373484 -0.140938 0)
(0.048068 -0.172231 0)
(0.0572014 -0.192406 0)
(0.064727 -0.199845 0)
(0.0704655 -0.195362 0)
(0.0744158 -0.181112 0)
(0.0770883 -0.159995 0)
(0.0784034 -0.135996 0)
(0.0779885 -0.111007 0)
(0.0764295 -0.0865239 0)
(0.0745666 -0.0640118 0)
(0.0729326 -0.044465 0)
(0.0716709 -0.0282578 0)
(0.0706488 -0.0151062 0)
(0.0696668 -0.00430898 0)
(0.0684341 0.00491457 0)
(0.0670435 0.0131527 0)
(0.0654597 0.0208979 0)
(0.0637481 0.0285814 0)
(0.0620764 0.0365575 0)
(0.0607251 0.0451069 0)
(0.0605457 0.0546662 0)
(0.0613955 0.0651256 0)
(0.0700791 0.0779396 0)
(0.0802078 0.0804736 0)
(0.0817321 0.0598365 0)
(0.239421 0.0561061 0)
(-0.541896 0.234817 0)
(1.01131 0.50678 0)
(-0.137099 0.296313 0)
(0.041101 0.161466 0)
(0.0406535 0.122013 0)
(0.0131347 0.0919035 0)
(0.0087145 0.0652974 0)
(0.0141452 0.0413263 0)
(0.0207769 0.0169203 0)
(0.0325868 -0.0110714 0)
(0.0440574 -0.0421912 0)
(0.055944 -0.0769611 0)
(0.0682455 -0.114718 0)
(0.0794163 -0.151216 0)
(0.0879515 -0.180692 0)
(0.0932006 -0.198692 0)
(0.0952706 -0.203801 0)
(0.0945652 -0.19708 0)
(0.091629 -0.180969 0)
(0.0871383 -0.158531 0)
(0.0815463 -0.133088 0)
(0.0751523 -0.107076 0)
(0.0685644 -0.0823131 0)
(0.0625146 -0.0601472 0)
(0.0575336 -0.0412984 0)
(0.0538231 -0.0258477 0)
(0.0512861 -0.0132938 0)
(0.0496512 -0.00285494 0)
(0.0485184 0.00617129 0)
(0.0478343 0.0142975 0)
(0.0473603 0.0219744 0)
(0.0470235 0.0295501 0)
(0.0468402 0.0372574 0)
(0.0468933 0.0452073 0)
(0.0475517 0.0534454 0)
(0.0487114 0.0615083 0)
(0.0539352 0.0693029 0)
(0.0639355 0.0658892 0)
(0.0608155 0.0344418 0)
(0.286622 0.0698874 0)
(-0.750513 0.308772 0)
(0.779322 0.395604 0)
(0.000983324 0.319432 0)
(0.0934431 0.218862 0)
(0.11068 0.155093 0)
(0.0772492 0.106729 0)
(0.0598656 0.0674444 0)
(0.0582879 0.0356615 0)
(0.0624647 0.00632043 0)
(0.0739036 -0.023515 0)
(0.085489 -0.0551159 0)
(0.0977048 -0.0898388 0)
(0.109596 -0.126382 0)
(0.119 -0.1602 0)
(0.12413 -0.185923 0)
(0.124381 -0.199962 0)
(0.120178 -0.201487 0)
(0.112466 -0.191878 0)
(0.102316 -0.173706 0)
(0.0907677 -0.150017 0)
(0.0786621 -0.123856 0)
(0.0666924 -0.0977655 0)
(0.0555985 -0.0736607 0)
(0.0461192 -0.052788 0)
(0.0387459 -0.0355889 0)
(0.0336034 -0.0218439 0)
(0.0304635 -0.0107632 0)
(0.0288641 -0.00142274 0)
(0.0283295 0.00682344 0)
(0.0285557 0.014437 0)
(0.029192 0.0217999 0)
(0.0300732 0.0291671 0)
(0.0310807 0.0367004 0)
(0.0320641 0.0444781 0)
(0.0328168 0.0525215 0)
(0.0322876 0.0605625 0)
(0.0302434 0.0684603 0)
(0.0144327 0.0707322 0)
(0.00161249 0.103052 0)
(0.0117318 0.178416 0)
(-0.638315 0.298698 0)
(0.617238 0.220601 0)
(0.00476601 0.298012 0)
(0.113066 0.241484 0)
(0.148351 0.177467 0)
(0.130929 0.123392 0)
(0.117912 0.077704 0)
(0.115058 0.0387594 0)
(0.117238 0.00326969 0)
(0.123617 -0.0308327 0)
(0.13186 -0.0651094 0)
(0.141569 -0.100612 0)
(0.150477 -0.135522 0)
(0.155636 -0.165434 0)
(0.155111 -0.185977 0)
(0.148583 -0.194829 0)
(0.136949 -0.192018 0)
(0.121677 -0.179307 0)
(0.104263 -0.159285 0)
(0.0860776 -0.134881 0)
(0.0682207 -0.108893 0)
(0.0516393 -0.0838148 0)
(0.0372142 -0.0615144 0)
(0.0257156 -0.0430917 0)
(0.0174692 -0.028608 0)
(0.012309 -0.0174566 0)
(0.0096054 -0.00846211 0)
(0.00864287 -0.000623972 0)
(0.00896249 0.00659333 0)
(0.0100599 0.0135511 0)
(0.0116532 0.0205174 0)
(0.0135712 0.0276591 0)
(0.0156464 0.03513 0)
(0.0176267 0.0431224 0)
(0.0190907 0.0519727 0)
(0.018875 0.0622627 0)
(0.0160923 0.0757911 0)
(-0.00825387 0.0992197 0)
(-0.00806213 0.154535 0)
(0.0302574 0.185385 0)
(-0.541959 0.161887 0)
(0.570783 0.118209 0)
(-0.0203051 0.258511 0)
(0.113696 0.229825 0)
(0.165052 0.175964 0)
(0.166736 0.126053 0)
(0.164421 0.08095 0)
(0.165431 0.0398201 0)
(0.168386 0.00148121 0)
(0.172354 -0.0355221 0)
(0.17794 -0.0720281 0)
(0.184129 -0.107708 0)
(0.187847 -0.139797 0)
(0.186069 -0.164392 0)
(0.177414 -0.178644 0)
(0.162323 -0.181744 0)
(0.142337 -0.174592 0)
(0.119387 -0.159231 0)
(0.0952174 -0.13812 0)
(0.0714186 -0.113997 0)
(0.0491976 -0.0893592 0)
(0.0297226 -0.0666274 0)
(0.0140022 -0.0475465 0)
(0.00270904 -0.0329072 0)
(-0.0044496 -0.0220001 0)
(-0.00817639 -0.0139491 0)
(-0.00980171 -0.00710406 0)
(-0.00998314 -0.00072979 0)
(-0.00900414 0.00549353 0)
(-0.00732271 0.0117745 0)
(-0.00506349 0.018266 0)
(-0.00236274 0.0250796 0)
(0.00068798 0.032453 0)
(0.0039053 0.0406484 0)
(0.00704449 0.0502874 0)
(0.00953226 0.0628168 0)
(0.0118786 0.0816993 0)
(-0.000292769 0.115456 0)
(-0.00928229 0.182093 0)
(0.143725 0.201836 0)
(-0.461337 0.0904033 0)
(0.62847 0.0535077 0)
(0.00900345 0.19724 0)
(0.113696 0.196888 0)
(0.175031 0.157819 0)
(0.19132 0.117531 0)
(0.19802 0.0770919 0)
(0.203392 0.037086 0)
(0.208625 -0.00168719 0)
(0.213142 -0.0398109 0)
(0.21746 -0.0766623 0)
(0.219294 -0.1101 0)
(0.215485 -0.136954 0)
(0.204141 -0.154587 0)
(0.185352 -0.161978 0)
(0.160733 -0.159676 0)
(0.132443 -0.149088 0)
(0.102711 -0.132292 0)
(0.0732337 -0.111402 0)
(0.0457706 -0.0889642 0)
(0.0214505 -0.0671481 0)
(0.00186726 -0.0483662 0)
(-0.0120322 -0.0342309 0)
(-0.0202324 -0.0248104 0)
(-0.0248561 -0.0178384 0)
(-0.0271064 -0.0120799 0)
(-0.0278413 -0.00673977 0)
(-0.0274563 -0.00146107 0)
(-0.0260692 0.00393184 0)
(-0.0240293 0.00955468 0)
(-0.0213551 0.0155053 0)
(-0.0181629 0.0218663 0)
(-0.0145152 0.0288096 0)
(-0.0104235 0.0366575 0)
(-0.00585916 0.0460834 0)
(-0.0010989 0.0591053 0)
(0.00417491 0.0812501 0)
(0.00365479 0.115668 0)
(-0.00577101 0.171388 0)
(0.184196 0.196588 0)
(-0.356032 0.141853 0)
(0.47242 0.0748292 0)
(-0.132304 0.137502 0)
(0.094125 0.133164 0)
(0.172597 0.116622 0)
(0.203735 0.095128 0)
(0.218063 0.064156 0)
(0.228088 0.028153 0)
(0.237178 -0.00916396 0)
(0.243555 -0.045468 0)
(0.245054 -0.0783992 0)
(0.239076 -0.105302 0)
(0.224273 -0.124092 0)
(0.20117 -0.13388 0)
(0.171688 -0.135087 0)
(0.138404 -0.128951 0)
(0.103604 -0.116746 0)
(0.0695614 -0.100328 0)
(0.0374522 -0.0813323 0)
(0.00960745 -0.0622885 0)
(-0.0134326 -0.0450297 0)
(-0.0279986 -0.0334665 0)
(-0.0370311 -0.0256214 0)
(-0.0421965 -0.0199947 0)
(-0.0450318 -0.0153569 0)
(-0.0462911 -0.0111303 0)
(-0.0463892 -0.0069431 0)
(-0.0455344 -0.00259658 0)
(-0.0437552 0.00204269 0)
(-0.0414255 0.00702814 0)
(-0.0384964 0.0124353 0)
(-0.0351217 0.0183513 0)
(-0.0314569 0.0248966 0)
(-0.0276182 0.0323192 0)
(-0.0237245 0.0414221 0)
(-0.0206463 0.0552857 0)
(-0.019241 0.0783639 0)
(-0.0172754 0.104593 0)
(-0.0153242 0.130688 0)
(0.191434 0.171309 0)
(-0.374868 0.206229 0)
(0.723987 0.134531 0)
(0.0819551 0.115261 0)
(0.149734 0.0991246 0)
(0.222338 0.0802948 0)
(0.244008 0.0696617 0)
(0.248834 0.0473761 0)
(0.255152 0.0172904 0)
(0.261237 -0.0148899 0)
(0.260221 -0.0448424 0)
(0.249686 -0.0696746 0)
(0.229416 -0.087677 0)
(0.201007 -0.0983449 0)
(0.166853 -0.101948 0)
(0.129515 -0.0994566 0)
(0.0914846 -0.0921068 0)
(0.0542037 -0.0805718 0)
(0.0202839 -0.0664757 0)
(-0.0106956 -0.0509426 0)
(-0.0329774 -0.0386281 0)
(-0.0479732 -0.0299669 0)
(-0.057147 -0.0243785 0)
(-0.0627552 -0.0203203 0)
(-0.0661083 -0.0169985 0)
(-0.0679603 -0.013921 0)
(-0.0686296 -0.010872 0)
(-0.0682701 -0.00768202 0)
(-0.0669706 -0.00419069 0)
(-0.0647667 -0.0002333 0)
(-0.0619748 0.00423715 0)
(-0.0588106 0.00926372 0)
(-0.0554105 0.0150034 0)
(-0.0522096 0.0216546 0)
(-0.0497759 0.0296718 0)
(-0.0485878 0.0403666 0)
(-0.049596 0.0567812 0)
(-0.0557556 0.080379 0)
(-0.0638866 0.101965 0)
(-0.0487414 0.115881 0)
(0.0431246 0.16482 0)
(-0.481063 0.237295 0)
(0.192172 0.0879279 0)
(0.225958 0.0996167 0)
(0.246691 0.0698736 0)
(0.242737 0.0395225 0)
(0.239844 0.0119393 0)
(0.23475 -0.0129306 0)
(0.219947 -0.0333312 0)
(0.196161 -0.0484969 0)
(0.165763 -0.0584006 0)
(0.131233 -0.063464 0)
(0.0943921 -0.0639669 0)
(0.0572313 -0.0606217 0)
(0.021686 -0.0542566 0)
(-0.0128513 -0.0449764 0)
(-0.0397668 -0.0359775 0)
(-0.0600305 -0.0285798 0)
(-0.0737302 -0.0237249 0)
(-0.082674 -0.0205613 0)
(-0.0885414 -0.0183591 0)
(-0.0925575 -0.0164214 0)
(-0.0952729 -0.0145481 0)
(-0.0969144 -0.0126583 0)
(-0.0975532 -0.0106808 0)
(-0.0972005 -0.00849878 0)
(-0.0958441 -0.00594327 0)
(-0.0934608 -0.00279521 0)
(-0.0899726 0.00115233 0)
(-0.0861014 0.00596019 0)
(-0.0819953 0.011813 0)
(-0.0781526 0.0191478 0)
(-0.0753096 0.0286818 0)
(-0.0736675 0.0418256 0)
(-0.0733263 0.0609942 0)
(-0.0787799 0.0878457 0)
(-0.0907325 0.117443 0)
(-0.0813364 0.137257 0)
(-0.0955049 0.14397 0)
(-0.57163 0.134453 0)
(0.451668 0.209148 0)
(0.207352 0.178494 0)
(0.153482 0.118668 0)
(0.140066 0.063977 0)
(0.12845 0.0259254 0)
(0.114149 0.00192355 0)
(0.0987 -0.0127854 0)
(0.0775691 -0.0219762 0)
(0.0528206 -0.0277568 0)
(0.0256418 -0.0304924 0)
(-0.00413156 -0.0300935 0)
(-0.0329461 -0.0274985 0)
(-0.0583766 -0.0239232 0)
(-0.0794908 -0.0203805 0)
(-0.0950878 -0.0179747 0)
(-0.106066 -0.0163439 0)
(-0.113725 -0.0152364 0)
(-0.119485 -0.0140908 0)
(-0.124113 -0.0128159 0)
(-0.127894 -0.0114829 0)
(-0.130868 -0.0102112 0)
(-0.133012 -0.00906361 0)
(-0.134269 -0.00804278 0)
(-0.134549 -0.00708987 0)
(-0.1337 -0.00605918 0)
(-0.131531 -0.0046652 0)
(-0.127832 -0.00245628 0)
(-0.122376 0.00109884 0)
(-0.115958 0.0063961 0)
(-0.109485 0.0138144 0)
(-0.103191 0.0241431 0)
(-0.0968209 0.0385262 0)
(-0.0886085 0.0585669 0)
(-0.0787387 0.0861764 0)
(-0.0706292 0.122608 0)
(-0.0436819 0.161478 0)
(0.0770773 0.155201 0)
(-0.524729 0.0119915 0)
(0.363598 -0.412704 0)
(-0.345395 -0.512501 0)
(-0.218651 -0.0288123 0)
(-0.0922754 0.110693 0)
(-0.0532204 0.0926761 0)
(-0.0310357 0.0548504 0)
(-0.0263459 0.028821 0)
(-0.0314989 0.0121445 0)
(-0.0405227 0.00130344 0)
(-0.0510863 -0.00591232 0)
(-0.0647043 -0.0104559 0)
(-0.0800494 -0.0130567 0)
(-0.0958172 -0.014884 0)
(-0.110757 -0.0169838 0)
(-0.123666 -0.0195211 0)
(-0.1336 -0.0222314 0)
(-0.140687 -0.0247518 0)
(-0.146093 -0.026562 0)
(-0.150893 -0.0277208 0)
(-0.155595 -0.0283758 0)
(-0.160214 -0.0286418 0)
(-0.164567 -0.0285619 0)
(-0.168447 -0.0281478 0)
(-0.171678 -0.0273946 0)
(-0.174097 -0.0262888 0)
(-0.175506 -0.024803 0)
(-0.17563 -0.0228747 0)
(-0.174127 -0.0203605 0)
(-0.170666 -0.0169656 0)
(-0.165037 -0.012182 0)
(-0.157134 -0.00533195 0)
(-0.147212 0.00416451 0)
(-0.136648 0.0164407 0)
(-0.124929 0.0312208 0)
(-0.109283 0.0487938 0)
(-0.0864696 0.0695074 0)
(-0.0563263 0.094298 0)
(-0.0157818 0.127296 0)
(0.162428 0.13462 0)
(-0.405934 0.0694774 0)
(0.125377 -0.184165 0)
(-0.386972 -0.297056 0)
(-0.342659 -0.0968689 0)
(-0.264411 0.0511734 0)
(-0.210758 0.0835076 0)
(-0.17864 0.0747004 0)
(-0.162352 0.0612703 0)
(-0.156339 0.0512969 0)
(-0.156393 0.0460517 0)
(-0.159655 0.0452976 0)
(-0.164157 0.0481511 0)
(-0.168313 0.0533495 0)
(-0.17153 0.0595565 0)
(-0.173686 0.0646508 0)
(-0.175371 0.066817 0)
(-0.177235 0.0670332 0)
(-0.179788 0.0667343 0)
(-0.183 0.0669431 0)
(-0.186571 0.0676037 0)
(-0.190221 0.0682149 0)
(-0.19375 0.0683167 0)
(-0.197027 0.0676341 0)
(-0.199962 0.0660365 0)
(-0.202484 0.0634584 0)
(-0.204524 0.0598158 0)
(-0.205996 0.0549807 0)
(-0.206783 0.0488765 0)
(-0.206748 0.0416767 0)
(-0.205734 0.0339719 0)
(-0.20355 0.0267405 0)
(-0.199884 0.0211057 0)
(-0.194101 0.0180101 0)
(-0.18459 0.0178206 0)
(-0.17123 0.0199621 0)
(-0.153966 0.0231902 0)
(-0.128579 0.0258362 0)
(-0.0899738 0.024832 0)
(-0.0335599 0.0265172 0)
(0.17488 0.0703485 0)
(-0.398378 0.126322 0)
(1.14621 -0.0110496 0)
(-0.29401 -0.322182 0)
(-0.35242 -0.233336 0)
(-0.351772 -0.148991 0)
(-0.328124 -0.107571 0)
(-0.296376 -0.098857 0)
(-0.268854 -0.100909 0)
(-0.248666 -0.106473 0)
(-0.234909 -0.11405 0)
(-0.225668 -0.123763 0)
(-0.21931 -0.136066 0)
(-0.214814 -0.150917 0)
(-0.211684 -0.166777 0)
(-0.209868 -0.180531 0)
(-0.209687 -0.189235 0)
(-0.21137 -0.193335 0)
(-0.214434 -0.194128 0)
(-0.218124 -0.193275 0)
(-0.221811 -0.191806 0)
(-0.225212 -0.190093 0)
(-0.228343 -0.188143 0)
(-0.231395 -0.185798 0)
(-0.234625 -0.182841 0)
(-0.238295 -0.179038 0)
(-0.242668 -0.174171 0)
(-0.248047 -0.168045 0)
(-0.25479 -0.160469 0)
(-0.263227 -0.151212 0)
(-0.27343 -0.140001 0)
(-0.284895 -0.126582 0)
(-0.296315 -0.110844 0)
(-0.305648 -0.0929192 0)
(-0.310479 -0.0732334 0)
(-0.30811 -0.0527237 0)
(-0.298083 -0.0334906 0)
(-0.281788 -0.0170133 0)
(-0.254022 -0.00118036 0)
(-0.20536 0.0239407 0)
(-0.181699 0.0726075 0)
(-0.571242 0.133513 0)
)
;

boundaryField
{
    floor
    {
        type            noSlip;
    }
    ceiling
    {
        type            noSlip;
    }
    sWall
    {
        type            noSlip;
    }
    nWall
    {
        type            noSlip;
    }
    sideWalls
    {
        type            empty;
    }
    glass1
    {
        type            noSlip;
    }
    glass2
    {
        type            noSlip;
    }
    sun
    {
        type            noSlip;
    }
    Table_master
    {
        type            noSlip;
    }
    Table_slave
    {
        type            noSlip;
    }
    inlet
    {
        type            fixedValue;
        value           uniform (0.5 0 0);
    }
    outlet
    {
        type            zeroGradient;
    }
}


// ************************************************************************* //
