/*--------------------------------*- C++ -*----------------------------------*\
  =========                 |
  \\      /  F ield         | OpenFOAM: The Open Source CFD Toolbox
   \\    /   O peration     | Website:  https://openfoam.org
    \\  /    A nd           | Version:  6
     \\/     M anipulation  |
\*---------------------------------------------------------------------------*/
FoamFile
{
    version     2.0;
    format      ascii;
    class       volScalarField;
    location    "31999.9999978115338";
    object      alphat;
}
// * * * * * * * * * * * * * * * * * * * * * * * * * * * * * * * * * * * * * //

dimensions      [1 -1 -1 0 0 0 0];

internalField   nonuniform List<scalar> 
778
(
0.00104097
0.00111054
0.00110657
0.00115464
0.00119869
0.0012387
0.00127595
0.00131186
0.00134801
0.00138642
0.00142304
0.00145781
0.00149207
0.00152891
0.00156734
0.000736872
0.00105522
0.00106373
0.00103794
0.000994847
0.000937346
0.000880063
0.000827273
0.000779654
0.000736942
0.000698881
0.000664696
0.000633559
0.0006045
0.000576223
0.000546656
0.000522117
0.000472592
0.00152463
0.00300721
0.00263923
0.00304623
0.00334163
0.00365484
0.00396733
0.00425534
0.00448717
0.00462211
0.00470143
0.00466875
0.00443585
0.00385904
0.00281852
0.00171605
0.00163619
0.0015662
0.00131861
0.00224603
0.00311265
0.00362419
0.00364784
0.00287947
0.00246252
0.00217358
0.00195443
0.00178018
0.00163149
0.00149999
0.00137761
0.00125788
0.00115042
0.00105774
0.0011917
0.000599135
0.00193408
0.00419861
0.0031135
0.0044531
0.00497572
0.00541807
0.00581989
0.00617357
0.0064732
0.00670806
0.00693563
0.00717502
0.00739489
0.00752561
0.00743852
0.00681069
0.0049815
0.00192117
0.0016638
0.00355992
0.00496728
0.00563209
0.00512102
0.00135127
0.00117489
0.00103889
0.000932518
0.000847891
0.000779591
0.000723876
0.000678547
0.000643197
0.000707245
0.000832014
0.00131812
0.000681567
0.002329
0.00565804
0.00297922
0.00500694
0.00578039
0.00619427
0.00649861
0.0067238
0.00689193
0.00702822
0.00722209
0.00754953
0.00802723
0.00862793
0.00923201
0.00952995
0.00894952
0.00667857
0.00191375
0.00443248
0.0065957
0.00769377
0.00796351
0.00679722
0.00153907
0.00139975
0.00129193
0.0012023
0.00112594
0.00105738
0.00099275
0.000928553
0.000859197
0.000802829
0.000832472
0.00142796
0.000750274
0.00271823
0.0074899
0.00300549
0.00475981
0.00594882
0.00630145
0.00642934
0.00643413
0.0063702
0.00631372
0.00639499
0.00671309
0.00729661
0.00812306
0.00908216
0.00996649
0.0105284
0.0105234
0.00944569
0.00961243
0.00983401
0.00986507
0.00966382
0.00904422
0.00719659
0.00621579
0.00554412
0.00499806
0.00446295
0.00394483
0.003438
0.00293187
0.00241195
0.0018525
0.00141332
0.00141321
0.00111754
0.000895105
0.00119215
0.00113517
0.00310114
0.00953996
0.00353791
0.0040139
0.00569966
0.00609067
0.00605891
0.00584047
0.0055285
0.00527139
0.0052658
0.00559884
0.00626329
0.00722102
0.00834292
0.0094649
0.0104207
0.0110323
0.011145
0.0110345
0.0108395
0.010562
0.0102046
0.00974973
0.00908626
0.00844733
0.00786742
0.00730644
0.00670114
0.00605511
0.00536529
0.0046258
0.003832
0.00298972
0.00222659
0.0016717
0.00129769
0.00146735
0.00256435
0.00135459
0.00349188
0.0114352
0.00471416
0.00328822
0.00512148
0.00576105
0.00568926
0.00533578
0.00482351
0.00437321
0.00436039
0.00478064
0.0055407
0.0066107
0.0078294
0.00903709
0.0100776
0.0108238
0.011168
0.011143
0.010899
0.0105285
0.0101038
0.00967997
0.00926997
0.00889383
0.00854053
0.00816302
0.00770725
0.00715895
0.00651002
0.00575746
0.00490434
0.00397221
0.00306006
0.00220903
0.0016259
0.00146239
0.00261165
0.00160235
0.00382762
0.0128682
0.0064266
0.00313035
0.00405757
0.00510794
0.0052533
0.00496236
0.00435797
0.00374459
0.00388361
0.00443929
0.00528911
0.00639158
0.00765711
0.00892111
0.0100003
0.0107509
0.0110926
0.0110494
0.0107341
0.0102683
0.00976697
0.00932224
0.00897936
0.00873441
0.00854337
0.00833531
0.00804572
0.00764052
0.00710383
0.00643268
0.00563383
0.00473087
0.00379052
0.00283506
0.00197423
0.00132903
0.00386549
0.00212221
0.00392888
0.0121735
0.00794968
0.00404572
0.00274968
0.00337161
0.00394524
0.00399245
0.00352497
0.00342546
0.00378118
0.00443444
0.00535347
0.00652308
0.00784989
0.00915288
0.0102277
0.0109195
0.0111627
0.0109963
0.0105385
0.00993797
0.0093422
0.00886683
0.00856508
0.00841705
0.0083501
0.00827033
0.00810396
0.00781132
0.00737679
0.00679897
0.00608575
0.00525608
0.00434348
0.00331365
0.00190384
0.00168496
0.00614267
0.00238675
0.00384946
0.0098115
0.00820738
0.00555192
0.00366651
0.00283927
0.00269033
0.00281764
0.00305367
0.0034301
0.00396462
0.00470018
0.00570066
0.00696316
0.00836344
0.00968512
0.0107029
0.0112623
0.0113193
0.0109419
0.0102795
0.00951813
0.00883887
0.00837343
0.0081601
0.00813551
0.00818237
0.00818194
0.00807464
0.00783802
0.00746474
0.00695482
0.00631293
0.00554362
0.00462261
0.00332759
0.00148171
0.002967
0.00588642
0.0024395
0.00360591
0.00838494
0.00793392
0.00635207
0.00488869
0.00393552
0.00346425
0.00335788
0.00355331
0.00391329
0.00443651
0.00521406
0.00632098
0.00770768
0.00918109
0.0104748
0.0113498
0.0116715
0.0114374
0.0107643
0.00985406
0.00894421
0.00825303
0.00790568
0.00786572
0.00798095
0.00809766
0.00809976
0.00798678
0.00775784
0.00740868
0.00693532
0.00633052
0.00556275
0.00450491
0.00293256
0.00160422
0.00322097
0.00656811
0.00247447
0.00328333
0.00755979
0.00765248
0.00672287
0.00571938
0.00496363
0.00451846
0.00435868
0.00439922
0.00461735
0.00509896
0.00596975
0.00725277
0.00879209
0.0102986
0.0114612
0.0120536
0.0119938
0.0113503
0.0103126
0.00916107
0.00819961
0.00765338
0.00754354
0.00764163
0.00779717
0.00789839
0.00787004
0.00773816
0.00750537
0.00716527
0.00670496
0.00608236
0.00518611
0.00377048
0.0021822
0.00189495
0.00378105
0.00659603
0.00258776
0.0029938
0.00676208
0.00730643
0.0068674
0.00622359
0.00568244
0.00532235
0.00514658
0.00509526
0.00528256
0.00589556
0.0070365
0.00859319
0.0102628
0.0116717
0.0125087
0.0126144
0.0120036
0.0108528
0.00944989
0.00818511
0.00736941
0.00700733
0.0069665
0.00708188
0.00723243
0.00732446
0.00729437
0.00715837
0.00691911
0.00656776
0.00607209
0.00531902
0.00404879
0.00242194
0.00179059
0.00242216
0.00421913
0.00655322
0.00247199
0.00300375
0.0067122
0.00746473
0.00694969
0.0064287
0.00600193
0.00569428
0.00549597
0.00548998
0.00594388
0.00702677
0.00864697
0.0104764
0.0120904
0.0131126
0.013323
0.0127029
0.0114032
0.00975812
0.00816627
0.00700727
0.00631853
0.00599982
0.00594113
0.00603383
0.00617056
0.00625584
0.00622205
0.00606696
0.00579879
0.00541202
0.0048634
0.00401389
0.00277865
0.00186172
0.00200072
0.00295535
0.00432855
0.00540792
0.00234242
0.0027098
0.00282045
0.00416499
0.00489674
0.00512431
0.0051297
0.00508237
0.00517989
0.00581127
0.00715743
0.00905515
0.0111069
0.0128629
0.0139455
0.0141318
0.0133807
0.0118808
0.00992712
0.00806482
0.00660055
0.00561313
0.00505092
0.00480551
0.00475184
0.00479244
0.00484713
0.00484417
0.00473541
0.00450825
0.00419306
0.0038141
0.0033779
0.002853
0.00225648
0.00191749
0.00225056
0.00322353
0.00444064
0.00535849
0.0022763
0.000963586
0.00173756
0.00266766
0.00341577
0.00428499
0.00575338
0.00791405
0.0103145
0.0125035
0.0141432
0.0150001
0.0149181
0.0138975
0.012048
0.00985005
0.00776805
0.00611181
0.00500303
0.00439799
0.00411072
0.00398096
0.00391863
0.00387092
0.00379608
0.0036627
0.00346547
0.00322314
0.00298023
0.00277041
0.00260469
0.00247145
0.00236208
0.00234512
0.00264399
0.00348821
0.00481863
0.00596087
0.00243942
0.00178738
0.00247282
0.00360082
0.00561124
0.00833057
0.0110497
0.013148
0.0146636
0.0155868
0.0158518
0.0153355
0.0139115
0.0117933
0.00938466
0.00716374
0.00549324
0.00450816
0.00403302
0.0038213
0.00372564
0.00367778
0.00364078
0.0035882
0.00350198
0.00337999
0.00324071
0.00311351
0.00302315
0.00297738
0.00297044
0.00299431
0.0030553
0.0031934
0.00350782
0.00421187
0.00584603
0.00643404
0.00253237
0.00323737
0.00786851
0.00726696
0.00650595
0.00825411
0.0109795
0.0132694
0.0148108
0.0156243
0.015828
0.0155225
0.0146569
0.0131687
0.0111005
0.00872264
0.00654633
0.00505838
0.00428767
0.00395222
0.00382241
0.00378929
0.00380195
0.00382831
0.00384384
0.00383312
0.00379435
0.00373975
0.00368829
0.0036548
0.00364591
0.00366421
0.00371067
0.00379268
0.00393202
0.00417315
0.00459605
0.00537284
0.00726078
0.00735364
0.00261166
0.00309492
0.00598332
0.00773283
0.00989736
0.0109833
0.0120945
0.0127351
0.0128828
0.0126324
0.012051
0.011162
0.00996549
0.00850117
0.00692828
0.00552045
0.00450153
0.0039085
0.00360854
0.00348457
0.00347148
0.0035304
0.0036296
0.00373912
0.0038337
0.00389874
0.00393418
0.00395186
0.00396686
0.00398894
0.0040205
0.00406305
0.00412387
0.00422218
0.00438975
0.00466524
0.0050877
0.00571799
0.00699795
0.00772374
0.00266619
0.00289525
0.00248109
0.00246877
0.00254069
0.00259997
0.00252215
0.00237238
0.00219908
0.00202645
0.00186229
0.00170696
0.00156103
0.00143065
0.00132801
0.00126491
0.00123724
0.00123147
0.00123944
0.00125546
0.00127573
0.0012976
0.00131937
0.00134016
0.00135983
0.00137895
0.0013986
0.00142015
0.00144508
0.00147502
0.00151217
0.00155984
0.0016228
0.00170652
0.00181509
0.00194887
0.00210448
0.00227731
0.0024627
0.00264749
0.00247366
)
;

boundaryField
{
    floor
    {
        type            compressible::alphatWallFunction;
        Prt             0.85;
        value           nonuniform List<scalar> 
36
(
0.000219885
0.00010449
0.000149915
0.000151104
0.000147494
0.000141439
0.00013331
0.000125155
0.000117583
0.000110704
0.000104491
9.89183e-05
9.38819e-05
8.92672e-05
8.49356e-05
8.06959e-05
7.62354e-05
7.2511e-05
6.49272e-05
6.49264e-05
8.41338e-05
9.63718e-05
0.000106435
0.000127303
0.000168933
0.000161056
0.000219883
0.000239678
0.00022907
0.000219727
0.000104489
0.000219725
0.000186282
0.000266672
0.000232735
0.000265701
)
;
    }
    ceiling
    {
        type            compressible::alphatWallFunction;
        Prt             0.85;
        value           nonuniform List<scalar> 
43
(
0.000391244
0.000338957
0.000337393
0.000346547
0.000354078
0.000344233
0.000325164
0.000302929
0.000280587
0.000259151
0.00023868
0.000219263
0.000201744
0.000187816
0.000179178
0.000175371
0.000174568
0.000175654
0.000177853
0.000180636
0.000183638
0.000186623
0.000189469
0.000192158
0.000194765
0.000197435
0.000200353
0.000203717
0.00020774
0.000212707
0.000219046
0.000227373
0.000238394
0.000252631
0.000270107
0.000290336
0.000312663
0.000336433
0.000359943
0.000337854
0.000368259
0.000382169
0.000248616
)
;
    }
    sWall
    {
        type            compressible::alphatWallFunction;
        Prt             0.85;
        value           nonuniform List<scalar> 9(0.000507604 0.000477892 0.000438226 0.000402288 0.000403518 0.000366684 0.000431906 0.000414293 0.000389493);
    }
    nWall
    {
        type            compressible::alphatWallFunction;
        Prt             0.85;
        value           nonuniform List<scalar> 
14
(
0.000160607
0.000190719
0.000224066
0.000333092
0.000337543
0.000351671
0.000336693
0.000320352
0.000312187
0.000333351
0.000344885
0.000354855
0.000361585
0.000337161
)
;
    }
    sideWalls
    {
        type            empty;
    }
    glass1
    {
        type            compressible::alphatWallFunction;
        Prt             0.85;
        value           nonuniform List<scalar> 9(0.000143925 0.00020913 0.000262683 0.000313287 0.000362355 0.000409974 0.000457981 0.000498839 0.000511209);
    }
    glass2
    {
        type            compressible::alphatWallFunction;
        Prt             0.85;
        value           nonuniform List<scalar> 2(0.000290086 0.000323954);
    }
    sun
    {
        type            compressible::alphatWallFunction;
        Prt             0.85;
        value           nonuniform List<scalar> 
14
(
0.000147959
0.000157646
0.000157092
0.000163764
0.000169851
0.000175358
0.000180467
0.000185375
0.000190301
0.000195519
0.000200478
0.000205175
0.000209788
0.000214736
)
;
    }
    Table_master
    {
        type            compressible::alphatWallFunction;
        Prt             0.85;
        value           nonuniform List<scalar> 9(0.000190999 0.000166814 0.000147882 0.000132874 0.00012079 0.000110934 0.000102816 9.61567e-05 9.09255e-05);
    }
    Table_slave
    {
        type            compressible::alphatWallFunction;
        Prt             0.85;
        value           nonuniform List<scalar> 9(0.000216367 0.000197588 0.000182909 0.000170602 0.000160034 0.000150476 0.000141398 0.000132314 0.000122415);
    }
    inlet
    {
        type            fixedValue;
        value           uniform 1.94e-05;
    }
    outlet
    {
        type            zeroGradient;
    }
}


// ************************************************************************* //
