/*--------------------------------*- C++ -*----------------------------------*\
  =========                 |
  \\      /  F ield         | OpenFOAM: The Open Source CFD Toolbox
   \\    /   O peration     | Website:  https://openfoam.org
    \\  /    A nd           | Version:  6
     \\/     M anipulation  |
\*---------------------------------------------------------------------------*/
FoamFile
{
    version     2.0;
    format      ascii;
    class       volScalarField;
    location    "31999.9999978115338";
    object      epsilon;
}
// * * * * * * * * * * * * * * * * * * * * * * * * * * * * * * * * * * * * * //

dimensions      [0 2 -3 0 0 0 0];

internalField   nonuniform List<scalar> 
778
(
0.000253112
0.000306355
0.000303035
0.000344244
0.000385151
0.000425003
0.00046449
0.000504799
0.000547663
0.000595799
0.000644227
0.000692571
0.000742479
0.000798758
0.000860446
8.94757e-05
0.000262416
0.000268794
0.000249713
0.000219892
0.000183932
0.000152236
0.000126456
0.000105857
8.93995e-05
7.62546e-05
6.56066e-05
5.68148e-05
4.93528e-05
4.27481e-05
3.65019e-05
3.18064e-05
2.35942e-05
0.000796958
0.00144319
0.000287031
0.000259659
0.000261771
0.000267753
0.000276658
0.000290098
0.000310363
0.000340577
0.000379787
0.000430885
0.000499232
0.000600384
0.000785459
0.00112901
0.000978469
0.000858163
0.000512019
0.000369408
0.000294064
0.000242697
0.00020386
0.000186681
0.00015455
0.00012491
0.000100636
8.14448e-05
6.64926e-05
5.47953e-05
4.56093e-05
3.86889e-05
3.44997e-05
3.27375e-05
6.57818e-05
4.80662e-05
0.00163052
0.004079
0.000407425
0.000242992
0.000229176
0.000231092
0.000238311
0.000250583
0.000268492
0.000292759
0.000324873
0.000366909
0.000421245
0.000494895
0.00060123
0.000724452
0.000829568
0.00158358
0.00102832
0.000512427
0.000367709
0.000294226
0.000261968
0.000550827
0.000362067
0.000250329
0.000181044
0.000136094
0.000105785
8.46879e-05
6.9755e-05
5.94124e-05
4.50969e-05
3.79484e-05
0.00010828
7.07561e-05
0.00285327
0.00877028
0.000709893
0.000240779
0.000202541
0.000200076
0.000203246
0.000209869
0.000220683
0.000237594
0.00026327
0.000299985
0.000349143
0.000412212
0.000487848
0.000560043
0.000612296
0.000824368
0.00156498
0.000729049
0.000459822
0.000358306
0.000301909
0.00029179
0.000813897
0.000612284
0.000481412
0.000388009
0.000318677
0.000263938
0.000218437
0.000178743
0.000141608
8.36252e-05
5.47733e-05
0.000148952
9.43808e-05
0.00454554
0.0158273
0.00134633
0.000258382
0.000175781
0.000166839
0.000165842
0.000167812
0.00017397
0.000187472
0.000211704
0.000248351
0.000297698
0.000359146
0.000427536
0.000488893
0.000528339
0.000582381
0.000627495
0.000483211
0.00039353
0.00033107
0.000282314
0.000248616
0.000247803
0.000226723
0.000202869
0.000180997
0.000162623
0.000146467
0.000131802
0.000118215
0.000105056
8.44196e-05
6.40608e-05
0.000105242
0.000138792
0.000160258
0.00037859
0.000327153
0.00676285
0.0248787
0.00255341
0.000318086
0.000155571
0.0001371
0.000132156
0.000130718
0.000134483
0.000148575
0.000176719
0.000218051
0.000270686
0.000333862
0.000401361
0.000462217
0.000502644
0.000521471
0.000504694
0.000438234
0.000373848
0.000315678
0.00026475
0.000223373
0.000193268
0.00016961
0.0001508
0.000135623
0.000123294
0.000112743
0.000103281
9.45155e-05
8.60765e-05
7.58919e-05
6.52445e-05
7.75204e-05
9.965e-05
0.000214943
0.00109887
0.000556007
0.00967101
0.0336383
0.00458373
0.000464958
0.000150855
0.000116362
0.000107107
0.0001033
0.000107095
0.000127942
0.000166149
0.000215866
0.000273175
0.000339751
0.000408874
0.000469946
0.000509729
0.000520141
0.000494144
0.000437557
0.000371826
0.000307476
0.000250534
0.000204414
0.000169725
0.000144546
0.000126329
0.000112752
0.000102299
9.37237e-05
8.62184e-05
7.93285e-05
7.27842e-05
6.61335e-05
6.02692e-05
6.35911e-05
7.6734e-05
0.00017948
0.00165978
0.000920161
0.0127576
0.0404086
0.00749029
0.00087113
0.000194234
0.000115371
9.73877e-05
9.14633e-05
9.86392e-05
0.000137728
0.000189306
0.000246234
0.000306907
0.000373523
0.000444339
0.000507571
0.000546952
0.00055061
0.000515491
0.000451436
0.000375445
0.000300913
0.000236438
0.000185929
0.000149296
0.000123984
0.000106733
9.4604e-05
8.57758e-05
7.88387e-05
7.29143e-05
6.75274e-05
6.24561e-05
5.76525e-05
5.39043e-05
5.54257e-05
7.04189e-05
0.000379273
0.00593637
0.00214133
0.0138264
0.0414613
0.0139331
0.00316275
0.000629532
0.000207865
0.000132622
0.000115965
0.000142401
0.000192881
0.000249259
0.000306366
0.000367216
0.000436397
0.000510751
0.000575364
0.000610545
0.000602833
0.000551884
0.000470756
0.000378338
0.000290809
0.000218191
0.000163992
0.000126782
0.000102639
8.73355e-05
7.74022e-05
7.07288e-05
6.57313e-05
6.15171e-05
5.76523e-05
5.39795e-05
5.05846e-05
4.82252e-05
5.11995e-05
9.63895e-05
0.00117654
0.0160727
0.00304892
0.0130039
0.0283726
0.0144157
0.00572514
0.00210294
0.000833822
0.000413304
0.000276673
0.000278814
0.000314428
0.000355962
0.000401616
0.000458502
0.000530825
0.000609911
0.000673849
0.000698442
0.000670264
0.000593409
0.000486327
0.000372378
0.000270538
0.000191097
0.000135781
0.000100736
7.99507e-05
6.80448e-05
6.127e-05
5.71942e-05
5.4251e-05
5.16936e-05
4.92206e-05
4.67835e-05
4.46104e-05
4.38241e-05
5.20886e-05
0.000185289
0.00330955
0.0124484
0.00325846
0.0106896
0.0193592
0.012039
0.00629919
0.00317318
0.00167366
0.000985949
0.00067842
0.000559547
0.000516976
0.000510163
0.000531336
0.00058378
0.000663076
0.000747897
0.000805354
0.000807231
0.000743655
0.000627387
0.000485421
0.000347123
0.000233369
0.000152516
0.000101889
7.36716e-05
5.88988e-05
5.14322e-05
4.80208e-05
4.62316e-05
4.49185e-05
4.3617e-05
4.21918e-05
4.07505e-05
3.9877e-05
4.19122e-05
6.03192e-05
0.000235793
0.00248246
0.0113069
0.00340079
0.00807282
0.0137713
0.00969249
0.00593272
0.00356877
0.00222657
0.00148997
0.00109214
0.000868613
0.000743069
0.000685612
0.000690184
0.000751146
0.000845904
0.000933579
0.000969343
0.000926154
0.000804958
0.000633878
0.000451198
0.000292468
0.00017722
0.000107097
6.95255e-05
5.25306e-05
4.43989e-05
4.05912e-05
3.92044e-05
3.86221e-05
3.81708e-05
3.75793e-05
3.68283e-05
3.62868e-05
3.75185e-05
4.65529e-05
9.42731e-05
0.000360401
0.0022732
0.00893637
0.00387733
0.00612438
0.0101685
0.00779177
0.00531255
0.00356999
0.00246885
0.00178761
0.00136787
0.00109261
0.000925779
0.000859227
0.000887336
0.000984477
0.00110003
0.00117214
0.00115173
0.00102702
0.000820842
0.00058493
0.000367569
0.000208036
0.000114452
7.20684e-05
5.21803e-05
4.2717e-05
3.79789e-05
3.57039e-05
3.49174e-05
3.46325e-05
3.44257e-05
3.41475e-05
3.39832e-05
3.5097e-05
4.24075e-05
7.74131e-05
0.000223659
0.000715099
0.00246039
0.00785063
0.00336854
0.00618199
0.00781467
0.0068061
0.00474031
0.00336606
0.00246259
0.00186581
0.00146233
0.00119451
0.00106456
0.00107091
0.00118222
0.00133302
0.00144225
0.00144227
0.00130231
0.00105089
0.000740743
0.000455711
0.000237739
0.00013098
8.17383e-05
5.97354e-05
4.87695e-05
4.25806e-05
3.88388e-05
3.66907e-05
3.57324e-05
3.53343e-05
3.51721e-05
3.52134e-05
3.60133e-05
4.03015e-05
5.94838e-05
0.000137215
0.000401943
0.00113224
0.00285217
0.00590253
0.00287378
0.00454551
0.00511563
0.00418614
0.00336252
0.00264036
0.00207064
0.00164945
0.00136207
0.00124477
0.00130071
0.00147994
0.00169103
0.00183071
0.00182293
0.00164158
0.0013034
0.000908709
0.000518896
0.000278373
0.000155205
0.000101973
7.86293e-05
6.65592e-05
5.87269e-05
5.29904e-05
4.88258e-05
4.61545e-05
4.48835e-05
4.47082e-05
4.52452e-05
4.6532e-05
4.93788e-05
5.73741e-05
8.37307e-05
0.000171709
0.00044017
0.00114196
0.00271497
0.00552191
0.00264857
0.00139855
0.00142915
0.001432
0.00135369
0.00131194
0.00142279
0.0017072
0.00204421
0.00231053
0.00241255
0.00229923
0.00198558
0.00153488
0.000981557
0.000568613
0.000312704
0.00018803
0.000135379
0.000113081
0.000101071
9.2385e-05
8.50921e-05
7.90142e-05
7.45445e-05
7.21483e-05
7.20399e-05
7.44342e-05
7.88428e-05
8.51403e-05
9.38027e-05
0.000107604
0.000136578
0.000210854
0.000411937
0.000938106
0.00222054
0.00491632
0.00327051
0.00118792
0.00171612
0.0019541
0.00230994
0.00275638
0.00316188
0.00334287
0.00331157
0.00309156
0.00270295
0.00213427
0.00151573
0.00098026
0.000577085
0.000344094
0.000234089
0.000189414
0.000170441
0.000159823
0.000151683
0.000144492
0.000138249
0.000133633
0.000131628
0.000133219
0.000139112
0.000149494
0.000164665
0.000184096
0.000207722
0.000237215
0.000279546
0.000354646
0.000513407
0.000901947
0.00231646
0.00409421
0.00364437
0.00741267
0.00807453
0.00481365
0.00340601
0.0037387
0.00414689
0.00415711
0.00394422
0.00358762
0.00313316
0.00262846
0.00208728
0.00153816
0.00105141
0.000685682
0.000461719
0.000354328
0.000309998
0.000291723
0.00028287
0.000277255
0.000272334
0.000267097
0.000261695
0.000257368
0.000256093
0.000259934
0.000270463
0.000288702
0.000315567
0.000352437
0.000401435
0.000467081
0.000560355
0.000706486
0.000956168
0.00145953
0.00328718
0.00448872
0.00399399
0.0065005
0.00513249
0.00436297
0.00461976
0.00454379
0.00427785
0.00369743
0.00305004
0.00246309
0.00196949
0.00156646
0.00124392
0.000991758
0.000803505
0.000669113
0.000576397
0.000518229
0.000485294
0.000470146
0.00046755
0.00047332
0.000483853
0.000496254
0.000508728
0.000520912
0.000533921
0.000550169
0.000573147
0.000607378
0.000658512
0.00073383
0.000843208
0.00100076
0.00122685
0.0015511
0.00201869
0.00270519
0.00411668
0.00614785
0.00424245
0.00536037
0.00337329
0.00332524
0.00362752
0.00389322
0.00356584
0.00297678
0.00237646
0.00186264
0.00144739
0.00111565
0.000853996
0.000657843
0.000526356
0.00045477
0.000425522
0.000419525
0.000427647
0.000444433
0.000466345
0.000490827
0.000516056
0.000540948
0.000565234
0.000589498
0.000615102
0.000643976
0.000678427
0.000721305
0.000776786
0.000851819
0.000957871
0.00111208
0.00133625
0.00165295
0.00208184
0.00264017
0.00334213
0.00415599
0.00338836
)
;

boundaryField
{
    floor
    {
        Cmu             0.09;
        kappa           0.41;
        E               9.8;
        type            epsilonWallFunction;
        value           nonuniform List<scalar> 
36
(
0.000860446
8.94757e-05
0.000262416
0.000268794
0.000249713
0.000219892
0.000183932
0.000152236
0.000126456
0.000105857
8.93995e-05
7.62546e-05
6.56066e-05
5.68148e-05
4.93528e-05
4.27481e-05
3.65019e-05
3.18064e-05
2.35942e-05
2.35942e-05
4.80662e-05
7.07561e-05
9.43808e-05
0.000160258
0.00037859
0.000327153
0.000860446
0.00112901
0.000978469
0.000858163
8.94757e-05
0.000858163
0.000512019
0.00158358
0.00102832
0.00156498
)
;
    }
    ceiling
    {
        Cmu             0.09;
        kappa           0.41;
        E               9.8;
        type            epsilonWallFunction;
        value           nonuniform List<scalar> 
43
(
0.00536037
0.00337329
0.00332524
0.00362752
0.00389322
0.00356584
0.00297678
0.00237646
0.00186264
0.00144739
0.00111565
0.000853996
0.000657843
0.000526356
0.00045477
0.000425522
0.000419525
0.000427647
0.000444433
0.000466345
0.000490827
0.000516056
0.000540948
0.000565234
0.000589498
0.000615102
0.000643976
0.000678427
0.000721305
0.000776786
0.000851819
0.000957871
0.00111208
0.00133625
0.00165295
0.00208184
0.00264017
0.00334213
0.00415599
0.00338836
0.00454551
0.00511563
0.00118792
)
;
    }
    sWall
    {
        Cmu             0.09;
        kappa           0.41;
        E               9.8;
        type            epsilonWallFunction;
        value           nonuniform List<scalar> 9(0.0130039 0.0106896 0.00807282 0.00612438 0.00618199 0.00454551 0.00741267 0.0065005 0.00536037);
    }
    nWall
    {
        Cmu             0.09;
        kappa           0.41;
        E               9.8;
        type            epsilonWallFunction;
        value           nonuniform List<scalar> 
14
(
0.000327153
0.000556007
0.000920161
0.00325846
0.00340079
0.00387733
0.00336854
0.00287378
0.00264857
0.00327051
0.00364437
0.00399399
0.00424245
0.00338836
)
;
    }
    sideWalls
    {
        type            empty;
    }
    glass1
    {
        Cmu             0.09;
        kappa           0.41;
        E               9.8;
        type            epsilonWallFunction;
        value           nonuniform List<scalar> 9(0.000253112 0.000796958 0.00163052 0.00285327 0.00454554 0.00676285 0.00967101 0.0127576 0.0138264);
    }
    glass2
    {
        Cmu             0.09;
        kappa           0.41;
        E               9.8;
        type            epsilonWallFunction;
        value           nonuniform List<scalar> 2(0.00214133 0.00304892);
    }
    sun
    {
        Cmu             0.09;
        kappa           0.41;
        E               9.8;
        type            epsilonWallFunction;
        value           nonuniform List<scalar> 
14
(
0.000253112
0.000306355
0.000303035
0.000344244
0.000385151
0.000425003
0.00046449
0.000504799
0.000547663
0.000595799
0.000644227
0.000692571
0.000742479
0.000798758
)
;
    }
    Table_master
    {
        Cmu             0.09;
        kappa           0.41;
        E               9.8;
        type            epsilonWallFunction;
        value           nonuniform List<scalar> 9(0.000550827 0.000362067 0.000250329 0.000181044 0.000136094 0.000105785 8.46879e-05 6.9755e-05 5.94124e-05);
    }
    Table_slave
    {
        Cmu             0.09;
        kappa           0.41;
        E               9.8;
        type            epsilonWallFunction;
        value           nonuniform List<scalar> 9(0.000813897 0.000612284 0.000481412 0.000388009 0.000318677 0.000263938 0.000218437 0.000178743 0.000141608);
    }
    inlet
    {
        type            turbulentMixingLengthDissipationRateInlet;
        mixingLength    0.01;
        phi             phi;
        k               k;
        value           uniform 0.000471671;
    }
    outlet
    {
        type            zeroGradient;
    }
}


// ************************************************************************* //
