/*--------------------------------*- C++ -*----------------------------------*\
  =========                 |
  \\      /  F ield         | OpenFOAM: The Open Source CFD Toolbox
   \\    /   O peration     | Website:  https://openfoam.org
    \\  /    A nd           | Version:  6
     \\/     M anipulation  |
\*---------------------------------------------------------------------------*/
FoamFile
{
    version     2.0;
    format      ascii;
    class       volScalarField;
    location    "31999.9999978115338";
    object      k;
}
// * * * * * * * * * * * * * * * * * * * * * * * * * * * * * * * * * * * * * //

dimensions      [0 2 -2 0 0 0 0];

internalField   nonuniform List<scalar> 
778
(
0.0015859
0.00180116
0.00178812
0.00194676
0.00209808
0.00224042
0.00237713
0.00251274
0.00265304
0.0028063
0.00295638
0.00310249
0.0032498
0.00341201
0.0035855
0.000792873
0.00162453
0.00165075
0.00157167
0.00144391
0.00128185
0.00113
0.000998531
0.000886913
0.000792425
0.000712709
0.000644713
0.000585745
0.000533264
0.000484558
0.000436125
0.000397873
0.000326041
0.00340689
0.00643342
0.00268769
0.00274636
0.00288812
0.00305477
0.00323517
0.00343094
0.00364412
0.00387432
0.00412617
0.00437958
0.00459491
0.00469973
0.00459379
0.00429734
0.0039063
0.00357916
0.00253665
0.00281194
0.00295343
0.00289518
0.00266208
0.00226331
0.00190443
0.00160853
0.00136908
0.00117546
0.00101677
0.00088504
0.000773818
0.000681028
0.000615025
0.000574481
0.000864395
0.000523957
0.00549058
0.0127811
0.00347815
0.00321242
0.0032978
0.00345569
0.0036371
0.00384126
0.00407152
0.00432796
0.00463578
0.00501072
0.0054503
0.00595916
0.00652963
0.00685798
0.00627594
0.0053847
0.00403788
0.00416937
0.00417199
0.00397381
0.00357549
0.00266325
0.00201339
0.00157426
0.0012684
0.00104864
0.000886511
0.000764332
0.000671611
0.000603466
0.00055132
0.000548549
0.00116632
0.000678024
0.00797315
0.0217583
0.00449133
0.00339103
0.00334184
0.00343843
0.00354979
0.00366924
0.0038094
0.00399159
0.00425923
0.00464827
0.00517053
0.00582398
0.00655313
0.00713297
0.00722703
0.00724363
0.00534246
0.00554928
0.00537598
0.00512541
0.00478656
0.00434746
0.003455
0.00285784
0.00243452
0.00210845
0.00184914
0.00163081
0.00143754
0.00125763
0.00107678
0.000799872
0.0006592
0.00142378
0.000821598
0.0108757
0.0336346
0.00621283
0.00342524
0.00315856
0.00316724
0.00318982
0.00321008
0.0032523
0.00336122
0.00359474
0.00398893
0.0045527
0.0052754
0.00608519
0.0068157
0.00728156
0.00764254
0.00751557
0.00665303
0.00607278
0.00557885
0.00509891
0.00462902
0.00412246
0.00366469
0.0032739
0.00293616
0.00262993
0.00234653
0.00207805
0.0018174
0.00155395
0.0012208
0.000928889
0.00119058
0.00121593
0.00116937
0.00207426
0.00188187
0.0141739
0.047599
0.00928368
0.00349016
0.00290875
0.00282292
0.00276454
0.00269963
0.00266427
0.00273461
0.00298082
0.00341404
0.00402273
0.00479612
0.00565128
0.00645841
0.00706588
0.00740463
0.00732139
0.00678833
0.00621423
0.00563681
0.0050741
0.00455572
0.00409091
0.00369517
0.00336254
0.00307305
0.00280605
0.00255068
0.00229804
0.00204124
0.00177298
0.00147048
0.00117663
0.00111133
0.00111021
0.00173388
0.00518277
0.00268004
0.0179908
0.0606069
0.0143594
0.00381944
0.0027153
0.00252947
0.00241182
0.002294
0.00222098
0.00231161
0.00263047
0.00313932
0.00380137
0.00462958
0.00552577
0.00636334
0.00699738
0.00732492
0.0072519
0.00681635
0.00621442
0.00555435
0.00491164
0.00434257
0.0038723
0.0035003
0.00320667
0.00296173
0.00274122
0.00252876
0.00231285
0.00208634
0.00184443
0.00158227
0.00132576
0.00115706
0.00109047
0.00158169
0.006428
0.00374973
0.0216396
0.0704833
0.0214358
0.00510129
0.00274254
0.00237169
0.00220998
0.00208172
0.00202608
0.00221945
0.00265005
0.00323119
0.00393688
0.00477321
0.0056967
0.00657048
0.00722032
0.0075108
0.00738174
0.00689449
0.00619724
0.00542652
0.00469137
0.00406443
0.0035745
0.0032127
0.00294804
0.00274148
0.00256468
0.00239606
0.00222186
0.00203469
0.00183126
0.00161227
0.00139547
0.00122376
0.0011511
0.0021919
0.0147901
0.00658504
0.0228319
0.0694941
0.0325341
0.0110532
0.00406486
0.00258651
0.00223498
0.00210254
0.00218945
0.0025122
0.00300064
0.00360234
0.00433247
0.00521195
0.00618367
0.00708539
0.0077144
0.00792005
0.00766187
0.00702358
0.00616426
0.00524828
0.00440775
0.00372285
0.00321718
0.00286957
0.00263646
0.00247011
0.00233734
0.00221219
0.00207971
0.00193285
0.00176945
0.00159186
0.00141292
0.0012716
0.00132251
0.00434696
0.0306814
0.0083353
0.0219171
0.0516365
0.0336429
0.017429
0.00858166
0.00475469
0.00325847
0.00272847
0.00285175
0.00321002
0.00367203
0.00424629
0.00499532
0.00593838
0.00697407
0.00788686
0.00843994
0.00848101
0.00800037
0.00712123
0.00604009
0.00495416
0.00401251
0.00329204
0.0027992
0.00248998
0.0023037
0.00218594
0.00209807
0.0020132
0.0019178
0.0018063
0.00167777
0.00153527
0.00138953
0.0012853
0.00161765
0.00967641
0.0264409
0.00871184
0.0192327
0.0394398
0.0302381
0.0195627
0.0121771
0.00793348
0.00571261
0.00466542
0.00435892
0.00439714
0.00465055
0.00514391
0.00593449
0.00698156
0.0080901
0.00896562
0.00934293
0.00909388
0.00826913
0.00705687
0.00570997
0.0044606
0.00346396
0.00277102
0.0023503
0.00211681
0.00199248
0.0019255
0.00187605
0.0018225
0.00175501
0.00167004
0.00156806
0.00145405
0.00134149
0.00129846
0.00189886
0.0087321
0.0266192
0.00896379
0.0159497
0.0315901
0.0266525
0.0195377
0.0139731
0.0102804
0.00802312
0.00674645
0.00604454
0.00572708
0.00577949
0.00627184
0.00720873
0.00841964
0.00957091
0.0102874
0.0103125
0.00959103
0.00828041
0.00665968
0.00505386
0.003722
0.00279538
0.00223604
0.0019562
0.00181661
0.00174818
0.00171496
0.00168783
0.0016525
0.00160205
0.00153417
0.00145041
0.00136183
0.00129346
0.00140034
0.00255167
0.00905401
0.0237157
0.00978787
0.0132671
0.0256783
0.0233558
0.0186914
0.0145832
0.0115865
0.00954097
0.00820665
0.00729689
0.00683687
0.00695482
0.00771722
0.00897897
0.0103697
0.0114141
0.0117135
0.0111092
0.00968971
0.00777865
0.00575447
0.00402925
0.00283578
0.00219426
0.00186162
0.00169823
0.00161818
0.0015789
0.00155818
0.00153726
0.00150682
0.00146211
0.00140246
0.00133395
0.0012793
0.00133685
0.00195397
0.00406425
0.00995158
0.0221583
0.00891717
0.0133502
0.0224285
0.0220658
0.0177643
0.0143947
0.0118948
0.0100835
0.00876825
0.00791682
0.00777174
0.00846982
0.009867
0.0115296
0.0128827
0.0134178
0.0128546
0.0112778
0.00897272
0.00651124
0.00430258
0.00295834
0.00221914
0.00184858
0.00166208
0.00156508
0.00151154
0.00147924
0.00145583
0.00142952
0.00139435
0.00134783
0.00129211
0.00124177
0.00125521
0.00156055
0.00276915
0.0056498
0.0108546
0.0174566
0.00801806
0.0108757
0.0117671
0.0129252
0.0125539
0.0113762
0.0100769
0.00894944
0.0082052
0.00830178
0.00941182
0.0112878
0.013362
0.0149637
0.0155519
0.0148612
0.0128897
0.010144
0.00700824
0.00462707
0.0031257
0.00233639
0.00194611
0.00174643
0.00163122
0.00155607
0.00150214
0.00145999
0.00142348
0.00138619
0.00134485
0.00130074
0.00126099
0.00124919
0.00134209
0.00177176
0.0030736
0.0059261
0.010727
0.0168079
0.00758823
0.00353994
0.00481995
0.0059953
0.00660599
0.00728821
0.00879748
0.011307
0.0141327
0.016553
0.0180008
0.0181083
0.0167906
0.0142546
0.0106173
0.00730827
0.00481341
0.00331088
0.00254177
0.002178
0.00199066
0.00187287
0.00178325
0.00170785
0.00164268
0.00158739
0.00154288
0.00151247
0.00149681
0.00149969
0.00152633
0.00159241
0.0017539
0.00217146
0.00322295
0.00558726
0.0101053
0.0167262
0.00872829
0.00444557
0.00629362
0.0081164
0.011032
0.0147027
0.0181577
0.020389
0.0214528
0.021389
0.0201835
0.0176516
0.0141745
0.0104986
0.00718718
0.00484934
0.00350265
0.00285432
0.00256092
0.00241387
0.00232193
0.00225156
0.00219122
0.00213865
0.00209685
0.00207239
0.00207362
0.002107
0.00217902
0.00228652
0.002426
0.00260292
0.00285428
0.00328676
0.0041448
0.00602022
0.0113682
0.0158571
0.00938713
0.0150679
0.0244734
0.0181175
0.0144064
0.0170226
0.0207116
0.0228316
0.0235242
0.0230654
0.0217109
0.0197043
0.0170706
0.0138954
0.0105504
0.00755387
0.00537047
0.00413573
0.00356157
0.0033171
0.00321228
0.0031664
0.00314335
0.00312369
0.00309813
0.00306806
0.00304489
0.00304546
0.00308509
0.00317294
0.00331331
0.00351037
0.0037702
0.00411155
0.00458542
0.00530425
0.00647589
0.00865078
0.015093
0.0177506
0.00997991
0.0138049
0.0170521
0.0178558
0.0207686
0.0217122
0.0221338
0.0211385
0.0193265
0.0172089
0.0150369
0.0129106
0.0108735
0.00896894
0.00728877
0.00593763
0.00497661
0.00439712
0.0040886
0.00395457
0.0039362
0.00399385
0.00409432
0.00420846
0.00431449
0.00440266
0.00447747
0.00455527
0.00465827
0.00480875
0.00502696
0.00533482
0.00576141
0.0063512
0.00717049
0.00831187
0.00990243
0.0121525
0.0165844
0.0212919
0.0103931
0.0121394
0.00891466
0.0088298
0.00935714
0.00980869
0.00925087
0.00820181
0.00705831
0.00600022
0.00507144
0.00426326
0.00356727
0.00299746
0.00258335
0.00234357
0.00224205
0.00222104
0.00224969
0.0023082
0.00238341
0.00246602
0.00254969
0.00263091
0.00270895
0.00278585
0.0028659
0.00295491
0.00305945
0.00318723
0.003349
0.00356198
0.00385281
0.00425725
0.00481294
0.00554686
0.00646881
0.00757796
0.00886619
0.010251
0.00894731
)
;

boundaryField
{
    floor
    {
        type            kqRWallFunction;
        value           nonuniform List<scalar> 
36
(
0.0035855
0.000792873
0.00162453
0.00165075
0.00157167
0.00144391
0.00128185
0.00113
0.000998531
0.000886913
0.000792425
0.000712709
0.000644713
0.000585745
0.000533264
0.000484558
0.000436125
0.000397873
0.000326041
0.000326041
0.000523957
0.000678024
0.000821598
0.00116937
0.00207426
0.00188187
0.0035855
0.00429734
0.0039063
0.00357916
0.000792873
0.00357916
0.00253665
0.0053847
0.00403788
0.00534246
)
;
    }
    ceiling
    {
        type            kqRWallFunction;
        value           nonuniform List<scalar> 
43
(
0.0121394
0.00891466
0.0088298
0.00935714
0.00980869
0.00925087
0.00820181
0.00705831
0.00600022
0.00507144
0.00426326
0.00356727
0.00299746
0.00258335
0.00234357
0.00224205
0.00222104
0.00224969
0.0023082
0.00238341
0.00246602
0.00254969
0.00263091
0.00270895
0.00278585
0.0028659
0.00295491
0.00305945
0.00318723
0.003349
0.00356198
0.00385281
0.00425725
0.00481294
0.00554686
0.00646881
0.00757796
0.00886619
0.010251
0.00894731
0.0108757
0.0117671
0.00444557
)
;
    }
    sWall
    {
        type            kqRWallFunction;
        value           nonuniform List<scalar> 9(0.0219171 0.0192327 0.0159497 0.0132671 0.0133502 0.0108757 0.0150679 0.0138049 0.0121394);
    }
    nWall
    {
        type            kqRWallFunction;
        value           nonuniform List<scalar> 
14
(
0.00188187
0.00268004
0.00374973
0.00871184
0.00896379
0.00978787
0.00891717
0.00801806
0.00758823
0.00872829
0.00938713
0.00997991
0.0103931
0.00894731
)
;
    }
    sideWalls
    {
        type            empty;
    }
    glass1
    {
        type            kqRWallFunction;
        value           nonuniform List<scalar> 9(0.0015859 0.00340689 0.00549058 0.00797315 0.0108757 0.0141739 0.0179908 0.0216396 0.0228319);
    }
    glass2
    {
        type            kqRWallFunction;
        value           nonuniform List<scalar> 2(0.00658504 0.0083353);
    }
    sun
    {
        type            kqRWallFunction;
        value           nonuniform List<scalar> 
14
(
0.0015859
0.00180116
0.00178812
0.00194676
0.00209808
0.00224042
0.00237713
0.00251274
0.00265304
0.0028063
0.00295638
0.00310249
0.0032498
0.00341201
)
;
    }
    Table_master
    {
        type            kqRWallFunction;
        value           nonuniform List<scalar> 9(0.00266325 0.00201339 0.00157426 0.0012684 0.00104864 0.000886511 0.000764332 0.000671611 0.000603466);
    }
    Table_slave
    {
        type            kqRWallFunction;
        value           nonuniform List<scalar> 9(0.003455 0.00285784 0.00243452 0.00210845 0.00184914 0.00163081 0.00143754 0.00125763 0.00107678);
    }
    inlet
    {
        type            turbulentIntensityKineticEnergyInlet;
        intensity       0.05;
        value           uniform 0.0009375;
    }
    outlet
    {
        type            zeroGradient;
    }
}


// ************************************************************************* //
