/*--------------------------------*- C++ -*----------------------------------*\
  =========                 |
  \\      /  F ield         | OpenFOAM: The Open Source CFD Toolbox
   \\    /   O peration     | Website:  https://openfoam.org
    \\  /    A nd           | Version:  6
     \\/     M anipulation  |
\*---------------------------------------------------------------------------*/
FoamFile
{
    version     2.0;
    format      ascii;
    class       volScalarField;
    location    "31999.9999978115338";
    object      nut;
}
// * * * * * * * * * * * * * * * * * * * * * * * * * * * * * * * * * * * * * //

dimensions      [0 2 -1 0 0 0 0];

internalField   nonuniform List<scalar> 
778
(
0.0008943
0.000953061
0.000949605
0.000990834
0.00102862
0.00106294
0.00109489
0.00112569
0.00115669
0.00118963
0.00122102
0.00125083
0.00128018
0.00131174
0.00134468
0.000632331
0.000905127
0.0009124
0.000890277
0.000853324
0.000804012
0.000754889
0.000709618
0.000668782
0.000632155
0.000599516
0.0005702
0.000543499
0.00051858
0.00049433
0.000468975
0.000447936
0.00040549
0.00131076
0.0025811
0.00226502
0.0026143
0.00286782
0.00313663
0.0034048
0.00365195
0.00385087
0.0039666
0.00403456
0.00400633
0.00380622
0.003311
0.00241802
0.00147212
0.00140354
0.00134349
0.00113104
0.00192641
0.00266964
0.00310834
0.00312862
0.00246963
0.00211204
0.00186423
0.00167628
0.00152684
0.00139932
0.00128654
0.00118159
0.00107891
0.000986762
0.000907297
0.00102226
0.000514035
0.001664
0.00360432
0.00267234
0.00382221
0.00427093
0.00465078
0.00499583
0.00529954
0.00555679
0.00575836
0.00595353
0.00615863
0.00634671
0.00645802
0.00638232
0.00584286
0.00427315
0.00164788
0.00142699
0.00305317
0.00426016
0.00483033
0.00439203
0.00115892
0.00100765
0.00089101
0.000799784
0.000727206
0.00066863
0.000620847
0.000581973
0.000551659
0.000606602
0.000713639
0.00113065
0.000584749
0.00200521
0.00485826
0.0025574
0.0042982
0.00496252
0.00531822
0.00557989
0.00577357
0.00591816
0.00603528
0.0062016
0.00648225
0.00689141
0.00740564
0.00792239
0.00817641
0.00767717
0.00572842
0.0016414
0.00380154
0.00565677
0.00659852
0.00682989
0.00582964
0.00131999
0.0012005
0.00110803
0.00103116
0.00096567
0.000906871
0.000851439
0.000796381
0.000736897
0.000688567
0.000714015
0.00122485
0.000643691
0.00234193
0.00643291
0.00258029
0.00408659
0.00510797
0.00541137
0.00552181
0.00552649
0.00547202
0.00542375
0.00549349
0.0057662
0.0062662
0.00697399
0.00779502
0.00855165
0.00903188
0.00902632
0.00810133
0.00824412
0.00843413
0.00846082
0.00828829
0.00775695
0.00617234
0.00533116
0.00475509
0.00428675
0.0038278
0.00338342
0.00294872
0.00251461
0.00206869
0.00158886
0.00121221
0.00121218
0.000958735
0.000767937
0.00102282
0.00097425
0.00267355
0.00819615
0.00303783
0.00344659
0.00489471
0.00523124
0.00520473
0.00501782
0.00475042
0.00452988
0.00452514
0.00481086
0.00538046
0.0062009
0.00716145
0.00812171
0.00893954
0.00946278
0.00955874
0.00946373
0.00929657
0.00905867
0.00875234
0.00836231
0.00779333
0.00724537
0.00674799
0.00626685
0.00574767
0.00519355
0.00460187
0.00396759
0.00328673
0.0025643
0.00190977
0.00143389
0.0011132
0.0012588
0.00219999
0.00116264
0.0030121
0.00982773
0.00404855
0.00282376
0.00439863
0.00494869
0.00488781
0.0045849
0.0041454
0.0037589
0.00374809
0.00410895
0.00476082
0.0056776
0.00672107
0.00775471
0.00864518
0.00928383
0.00957839
0.00955677
0.0093477
0.0090302
0.0086662
0.00830282
0.00795125
0.00762867
0.00732565
0.00700183
0.00661089
0.00614055
0.00558391
0.00493838
0.0042066
0.00340706
0.00262469
0.00189478
0.0013947
0.00125449
0.0022405
0.00137524
0.00330346
0.0110647
0.00552108
0.00268856
0.00348516
0.00438797
0.00451352
0.00426421
0.00374548
0.00321894
0.00333877
0.0038161
0.00454507
0.00548967
0.00657316
0.0076549
0.00857839
0.00922083
0.00951346
0.00947656
0.00920647
0.00880734
0.00837767
0.0079964
0.00770238
0.00749231
0.00732843
0.00714993
0.00690149
0.00655386
0.00609345
0.00551771
0.00483244
0.0040579
0.0032513
0.00243179
0.00169347
0.00114007
0.00331637
0.00182253
0.00339325
0.0104832
0.00683709
0.00347658
0.0023622
0.00289661
0.00338982
0.00343085
0.0030297
0.00294485
0.00325102
0.00381217
0.00460035
0.00560224
0.00673792
0.00785284
0.00877262
0.00936486
0.00957336
0.00943112
0.00903907
0.0085245
0.00801381
0.00760623
0.00734744
0.00722046
0.00716299
0.00709449
0.0069517
0.0067006
0.00632778
0.00583207
0.00522022
0.00450851
0.00372569
0.00284235
0.0016331
0.00144546
0.00527112
0.00205088
0.00332457
0.00845781
0.00706632
0.00477532
0.0031518
0.00244014
0.00231207
0.00242167
0.00262514
0.00294942
0.00340919
0.00404064
0.0048981
0.00597897
0.0071771
0.00830784
0.0091789
0.00965811
0.00970751
0.00938478
0.0088175
0.00816497
0.00758261
0.00718345
0.00700044
0.00697929
0.0070194
0.00701892
0.00692677
0.00672369
0.00640339
0.00596591
0.00541523
0.00475526
0.00396521
0.00285437
0.00127105
0.00254625
0.0050545
0.00209628
0.00311433
0.00723144
0.00683537
0.00546785
0.00420568
0.00338457
0.00297891
0.00288753
0.00305607
0.003366
0.00381541
0.00448189
0.0054295
0.00661583
0.00787605
0.00898291
0.00973221
0.0100085
0.00980903
0.00923311
0.00845332
0.00767336
0.00708061
0.00678261
0.00674823
0.00684696
0.00694695
0.00694862
0.00685157
0.00665507
0.00635546
0.00594931
0.00543044
0.00477179
0.00386435
0.0025156
0.00137626
0.00276437
0.00564015
0.00212641
0.00283609
0.00652182
0.00659605
0.00579073
0.00492388
0.00427191
0.00388823
0.00375073
0.00378567
0.00397265
0.00438473
0.00512941
0.00622637
0.00754238
0.00883076
0.00982604
0.0103344
0.0102849
0.0097351
0.00884672
0.0078598
0.00703529
0.00656666
0.00647227
0.00655624
0.0066895
0.00677617
0.0067517
0.00663844
0.00643864
0.00614679
0.00575183
0.00521768
0.00444881
0.00323445
0.00187206
0.00162594
0.00324554
0.00566437
0.00222375
0.00258662
0.00583606
0.00630082
0.00591864
0.00536145
0.00489388
0.00458305
0.00443129
0.00438585
0.00454412
0.00506647
0.00604054
0.00737038
0.00879764
0.0100035
0.0107218
0.0108151
0.0102945
0.00930995
0.00810801
0.00702347
0.00632361
0.00601274
0.00597747
0.00607623
0.00620518
0.00628396
0.00625801
0.00614121
0.00593585
0.00563436
0.00520906
0.004563
0.00347331
0.00207776
0.00153636
0.00207892
0.00362261
0.00562872
0.00212449
0.00259472
0.00579338
0.00643849
0.00599146
0.0055402
0.00517086
0.00490456
0.00473175
0.00472232
0.00510632
0.00602888
0.00741167
0.008975
0.0103566
0.0112346
0.0114195
0.0108927
0.0097819
0.00837297
0.00700807
0.00601359
0.00542236
0.0051486
0.00509797
0.00517728
0.00529438
0.00536738
0.00533826
0.00520509
0.00497494
0.00464306
0.00417235
0.00344353
0.00238385
0.00159733
0.001717
0.0025373
0.00371787
0.00464648
0.00201339
0.00234193
0.00243601
0.00359172
0.00421829
0.00441138
0.00441362
0.00437013
0.00444859
0.00498306
0.00612927
0.00774844
0.00950241
0.0110079
0.011941
0.0121084
0.0114723
0.0101915
0.00851884
0.00692191
0.00566541
0.00481778
0.00433502
0.00412416
0.00407786
0.00411249
0.00415923
0.00415653
0.00406309
0.00386811
0.00359762
0.00327245
0.00289819
0.00244784
0.00193608
0.00164536
0.0019316
0.00276778
0.0038145
0.00460448
0.00195665
0.00080641
0.00146302
0.00225902
0.00290134
0.00364393
0.00489572
0.00673986
0.00879362
0.010673
0.0120878
0.0128355
0.0127787
0.0119146
0.0103361
0.00845385
0.0066683
0.00524689
0.00429501
0.00377546
0.00352868
0.0034171
0.00336341
0.00332226
0.00325787
0.00314327
0.00297393
0.00276594
0.00255748
0.00237744
0.00223524
0.00212092
0.00202709
0.00201263
0.00226944
0.00299494
0.00413888
0.00512149
0.00209645
0.0014973
0.00207729
0.00303406
0.00474186
0.00705822
0.00938466
0.0111922
0.0125077
0.0133182
0.0135643
0.0131389
0.0119298
0.0101196
0.00805601
0.00615079
0.00471689
0.0038711
0.00346307
0.00328118
0.00319891
0.00315765
0.00312572
0.00308041
0.00300627
0.00290146
0.00278186
0.00267268
0.00259516
0.00255593
0.00255001
0.00257053
0.0026229
0.00274147
0.00301153
0.00361648
0.00502116
0.00552741
0.00217613
0.00275658
0.00667597
0.00613713
0.00548414
0.00697547
0.00930997
0.0112855
0.0126273
0.0133462
0.0135399
0.0132942
0.0125649
0.0112975
0.00952817
0.0074896
0.00562198
0.00434451
0.0036827
0.00339461
0.00328309
0.00325457
0.00326533
0.00328783
0.00330102
0.00329167
0.00325827
0.00321134
0.00316716
0.00313846
0.00313094
0.00314678
0.0031868
0.00325733
0.00337705
0.00358416
0.00394737
0.00461465
0.00623694
0.00631754
0.00224434
0.00263852
0.00509882
0.00657683
0.00840308
0.00933756
0.0103069
0.0108766
0.0110216
0.0108211
0.0103326
0.00957676
0.00855439
0.00729993
0.00595062
0.00474208
0.00386713
0.00335782
0.00310019
0.0029937
0.00298243
0.00303298
0.00311811
0.00321207
0.00329319
0.00334895
0.00337932
0.00339449
0.00340741
0.00342648
0.00345375
0.00349049
0.00354296
0.00362764
0.00377181
0.00400867
0.00437175
0.00491334
0.00601305
0.00663661
0.00229147
0.00247424
0.0021203
0.00211019
0.0021723
0.0022241
0.00215996
0.00203383
0.00188675
0.00173959
0.00159925
0.00146622
0.00134109
0.00122922
0.00114111
0.00108694
0.0010632
0.00105827
0.00106513
0.0010789
0.00109631
0.00111508
0.00113376
0.00115159
0.00116847
0.00118488
0.00120176
0.00122028
0.00124173
0.0012675
0.00129948
0.00134053
0.00139473
0.00146678
0.00156018
0.00167523
0.00180902
0.00195756
0.00211686
0.00227564
0.00212636
)
;

boundaryField
{
    floor
    {
        type            nutkWallFunction;
        Cmu             0.09;
        kappa           0.41;
        E               9.8;
        value           nonuniform List<scalar> 
36
(
0.000160555
7.63777e-05
0.000109493
0.000110358
0.000107724
0.000103308
9.73789e-05
9.143e-05
8.59068e-05
8.08886e-05
7.63561e-05
7.22904e-05
6.86157e-05
6.52485e-05
6.20876e-05
5.89935e-05
5.57381e-05
5.30201e-05
4.7486e-05
4.7486e-05
6.15086e-05
7.04414e-05
7.77861e-05
9.30131e-05
0.000123391
0.000117676
0.000160555
0.000174978
0.000167235
0.000160419
7.63777e-05
0.000160419
0.000136019
0.000194647
0.000169885
0.000193925
)
;
    }
    ceiling
    {
        type            nutkWallFunction;
        Cmu             0.09;
        kappa           0.41;
        E               9.8;
        value           nonuniform List<scalar> 
43
(
0.000284378
0.000246393
0.000245301
0.000252019
0.000257611
0.000250709
0.000237053
0.000221005
0.000204811
0.00018923
0.000174323
0.000160169
0.000147388
0.000137224
0.000130919
0.000128142
0.000127558
0.000128353
0.000129959
0.000131991
0.000134182
0.00013636
0.000138435
0.000140397
0.000142299
0.000144249
0.000146381
0.000148841
0.000151784
0.000155419
0.000160058
0.00016615
0.000174212
0.000184623
0.000197399
0.000212183
0.000228494
0.000245857
0.000263028
0.000246903
0.000270449
0.000280503
0.000177603
)
;
    }
    sWall
    {
        type            nutkWallFunction;
        Cmu             0.09;
        kappa           0.41;
        E               9.8;
        value           nonuniform List<scalar> 9(0.000373881 0.000352071 0.000322972 0.000296633 0.000297487 0.000270538 0.000314296 0.000301866 0.000284479);
    }
    nWall
    {
        type            nutkWallFunction;
        Cmu             0.09;
        kappa           0.41;
        E               9.8;
        value           nonuniform List<scalar> 
14
(
0.000117683
0.000139687
0.000164036
0.000243886
0.000247147
0.00025747
0.000246549
0.000234633
0.000228674
0.000244102
0.000252513
0.000259807
0.000264752
0.00024694
)
;
    }
    sideWalls
    {
        type            empty;
    }
    glass1
    {
        type            nutkWallFunction;
        Cmu             0.09;
        kappa           0.41;
        E               9.8;
        value           nonuniform List<scalar> 9(0.000108247 0.00015688 0.000196733 0.000234344 0.000270785 0.000306134 0.00034175 0.000372071 0.000381368);
    }
    glass2
    {
        type            nutkWallFunction;
        Cmu             0.09;
        kappa           0.41;
        E               9.8;
        value           nonuniform List<scalar> 2(0.000214092 0.000239038);
    }
    sun
    {
        type            nutkWallFunction;
        Cmu             0.09;
        kappa           0.41;
        E               9.8;
        value           nonuniform List<scalar> 
14
(
0.000108205
0.00011518
0.000114771
0.000119638
0.000124079
0.000128095
0.000131821
0.000135401
0.000138993
0.000142798
0.000146414
0.000149837
0.000153198
0.000156803
)
;
    }
    Table_master
    {
        type            nutkWallFunction;
        Cmu             0.09;
        kappa           0.41;
        E               9.8;
        value           nonuniform List<scalar> 9(0.000139241 0.00012161 0.000107808 9.68678e-05 8.8059e-05 8.08735e-05 7.49561e-05 7.01014e-05 6.62882e-05);
    }
    Table_slave
    {
        type            nutkWallFunction;
        Cmu             0.09;
        kappa           0.41;
        E               9.8;
        value           nonuniform List<scalar> 9(0.000157731 0.000144041 0.000133341 0.000124369 0.000116665 0.000109697 0.00010308 9.64569e-05 8.9241e-05);
    }
    inlet
    {
        type            calculated;
        value           uniform 0.000167705;
    }
    outlet
    {
        type            calculated;
        value           nonuniform List<scalar> 2(0.00275658 0.00667597);
    }
}


// ************************************************************************* //
