/*--------------------------------*- C++ -*----------------------------------*\
  =========                 |
  \\      /  F ield         | OpenFOAM: The Open Source CFD Toolbox
   \\    /   O peration     | Website:  https://openfoam.org
    \\  /    A nd           | Version:  6
     \\/     M anipulation  |
\*---------------------------------------------------------------------------*/
FoamFile
{
    version     2.0;
    format      ascii;
    class       volScalarField;
    location    "31999.9999978115338";
    object      T;
}
// * * * * * * * * * * * * * * * * * * * * * * * * * * * * * * * * * * * * * //

dimensions      [0 0 0 1 0 0 0];

internalField   nonuniform List<scalar> 
778
(
302.565
302.246
302.23
302.225
302.221
302.216
302.212
302.207
302.202
302.198
302.191
302.184
302.175
302.164
302.154
302.223
302.094
302.086
302.085
302.087
302.091
302.095
302.1
302.105
302.11
302.115
302.12
302.125
302.13
302.135
302.142
302.15
302.182
302.778
302.277
302.245
302.244
302.245
302.245
302.245
302.243
302.239
302.234
302.225
302.211
302.192
302.166
302.138
302.119
302.105
302.101
302.082
302.063
302.056
302.053
302.053
302.054
302.056
302.057
302.059
302.061
302.063
302.065
302.068
302.072
302.079
302.09
302.106
302.158
302.994
302.324
302.272
302.278
302.289
302.299
302.307
302.313
302.315
302.313
302.304
302.285
302.254
302.213
302.167
302.127
302.095
302.075
302.048
302.041
302.039
302.039
302.04
302.041
302.042
302.044
302.045
302.046
302.047
302.048
302.05
302.052
302.057
302.067
302.084
302.145
303.204
302.385
302.303
302.315
302.336
302.358
302.378
302.395
302.407
302.411
302.403
302.379
302.335
302.274
302.207
302.146
302.097
302.062
302.047
302.036
302.032
302.032
302.033
302.034
302.035
302.035
302.036
302.036
302.036
302.037
302.037
302.037
302.037
302.043
302.053
302.071
302.137
303.405
302.459
302.335
302.349
302.38
302.414
302.448
302.479
302.503
302.517
302.513
302.485
302.426
302.341
302.248
302.164
302.099
302.057
302.036
302.028
302.027
302.028
302.031
302.034
302.036
302.037
302.038
302.039
302.039
302.039
302.039
302.038
302.038
302.039
302.045
302.061
302.114
302.125
302.138
302.235
303.594
302.544
302.372
302.377
302.415
302.458
302.503
302.547
302.587
302.613
302.617
302.587
302.512
302.4
302.28
302.174
302.095
302.05
302.028
302.021
302.022
302.027
302.032
302.036
302.04
302.042
302.043
302.043
302.043
302.043
302.042
302.041
302.04
302.039
302.042
302.052
302.086
302.098
302.113
302.248
303.757
302.639
302.42
302.401
302.439
302.485
302.535
302.585
302.635
302.675
302.692
302.664
302.575
302.436
302.292
302.171
302.086
302.038
302.017
302.014
302.02
302.028
302.036
302.042
302.046
302.048
302.049
302.049
302.048
302.047
302.045
302.044
302.042
302.04
302.04
302.047
302.067
302.079
302.096
302.229
303.91
302.783
302.516
302.436
302.457
302.499
302.545
302.592
302.642
302.701
302.731
302.7
302.596
302.444
302.284
302.153
302.064
302.018
302.003
302.007
302.019
302.033
302.044
302.051
302.055
302.057
302.056
302.055
302.053
302.051
302.049
302.046
302.043
302.041
302.04
302.043
302.055
302.068
302.109
302.407
304.118
303.232
302.843
302.588
302.504
302.516
302.552
302.593
302.65
302.719
302.754
302.712
302.588
302.416
302.245
302.11
302.027
301.991
301.989
302.004
302.024
302.042
302.055
302.063
302.066
302.066
302.064
302.061
302.058
302.055
302.051
302.048
302.045
302.042
302.04
302.042
302.05
302.075
302.164
302.572
304.103
303.535
303.163
302.862
302.686
302.617
302.609
302.633
302.703
302.773
302.786
302.707
302.545
302.348
302.17
302.044
301.978
301.962
301.978
302.007
302.036
302.058
302.071
302.076
302.076
302.074
302.07
302.065
302.061
302.056
302.052
302.049
302.045
302.042
302.041
302.042
302.056
302.183
302.353
302.576
304.107
303.67
303.355
303.095
302.915
302.815
302.778
302.787
302.836
302.865
302.815
302.665
302.449
302.23
302.058
301.958
301.925
301.939
301.978
302.021
302.057
302.079
302.088
302.089
302.085
302.079
302.073
302.067
302.062
302.057
302.053
302.049
302.045
302.043
302.042
302.046
302.073
302.195
302.362
302.581
304.139
303.757
303.493
303.282
303.128
303.033
302.99
302.99
302.994
302.939
302.781
302.537
302.272
302.053
301.917
301.867
301.882
301.934
301.997
302.051
302.087
302.104
302.105
302.098
302.09
302.081
302.074
302.067
302.062
302.057
302.053
302.049
302.045
302.043
302.045
302.059
302.116
302.233
302.368
302.572
304.204
303.876
303.633
303.45
303.318
303.232
303.186
303.158
303.071
302.874
302.579
302.257
301.99
301.826
301.768
301.794
301.869
301.959
302.04
302.096
302.123
302.127
302.118
302.106
302.094
302.084
302.075
302.068
302.063
302.058
302.054
302.05
302.048
302.048
302.058
302.103
302.198
302.312
302.421
302.598
304.14
303.889
303.681
303.539
303.424
303.333
303.256
303.127
302.853
302.472
302.085
301.787
301.625
301.595
301.661
301.779
301.91
302.027
302.107
302.15
302.157
302.148
302.133
302.118
302.103
302.091
302.081
302.074
302.068
302.063
302.059
302.056
302.055
302.06
302.084
302.156
302.28
302.412
302.512
302.63
304.281
304.088
303.618
303.297
303.093
302.928
302.738
302.371
301.9
301.501
301.27
301.217
301.303
301.469
301.667
301.861
302.018
302.131
302.183
302.196
302.19
302.175
302.158
302.14
302.124
302.11
302.099
302.09
302.084
302.08
302.078
302.077
302.078
302.085
302.111
302.179
302.3
302.433
302.535
302.636
294.641
296.441
298.138
299.046
299.398
299.586
299.834
300.158
300.527
300.905
301.264
301.578
301.836
302.045
302.165
302.225
302.246
302.245
302.234
302.22
302.203
302.185
302.168
302.153
302.141
302.132
302.129
302.128
302.129
302.132
302.134
302.139
302.153
302.195
302.283
302.403
302.493
302.569
294.923
295.748
296.647
297.515
298.29
299.011
299.69
300.3
300.821
301.258
301.634
301.91
302.097
302.218
302.28
302.305
302.31
302.307
302.298
302.286
302.271
302.255
302.239
302.226
302.217
302.213
302.214
302.219
302.226
302.232
302.235
302.236
302.238
302.251
302.294
302.385
302.452
302.535
299.769
298.696
297.317
296.76
297.517
298.52
299.419
300.15
300.722
301.16
301.516
301.803
302.028
302.186
302.287
302.343
302.37
302.38
302.383
302.381
302.374
302.364
302.351
302.337
302.324
302.314
302.31
302.31
302.317
302.327
302.339
302.351
302.359
302.364
302.364
302.365
302.373
302.41
302.451
302.539
300.129
300.002
299.417
298.894
299.295
300.012
300.669
301.184
301.566
301.844
302.048
302.196
302.3
302.368
302.408
302.431
302.444
302.451
302.453
302.45
302.444
302.434
302.422
302.411
302.401
302.395
302.393
302.396
302.405
302.418
302.435
302.454
302.472
302.488
302.5
302.505
302.504
302.498
302.495
302.566
300.845
300.845
300.905
300.992
301.144
301.483
301.8
302.038
302.203
302.314
302.389
302.438
302.471
302.492
302.507
302.517
302.524
302.528
302.529
302.526
302.52
302.512
302.504
302.497
302.492
302.491
302.493
302.499
302.51
302.524
302.542
302.561
302.581
302.598
302.609
302.613
302.61
302.601
302.592
302.611
)
;

boundaryField
{
    floor
    {
        type            wallHeatTransfer;
        Tinf            uniform 305.2;
        alphaWall       uniform 0.36;
        value           nonuniform List<scalar> 
36
(
302.544
302.868
302.622
302.613
302.621
302.639
302.665
302.693
302.722
302.751
302.779
302.806
302.833
302.858
302.884
302.91
302.94
302.968
303.04
303.04
302.909
302.841
302.793
302.711
302.616
302.714
302.544
302.487
302.488
302.497
302.868
302.497
302.535
302.417
302.434
302.394
)
;
    }
    ceiling
    {
        type            wallHeatTransfer;
        Tinf            uniform 303.2;
        alphaWall       uniform 0.36;
        value           nonuniform List<scalar> 
43
(
301.032
301.057
301.112
301.187
301.322
301.635
301.93
302.153
302.308
302.414
302.486
302.536
302.571
302.594
302.61
302.62
302.627
302.63
302.63
302.626
302.62
302.612
302.604
302.597
302.592
302.589
302.59
302.594
302.602
302.613
302.626
302.641
302.655
302.667
302.673
302.673
302.667
302.656
302.645
302.665
304.19
304.016
295.883
)
;
    }
    sWall
    {
        type            wallHeatTransfer;
        Tinf            uniform 315.2;
        alphaWall       uniform 0.54;
        value           nonuniform List<scalar> 9(305.123 305.181 305.292 305.436 305.376 305.601 301.397 301.777 302.497);
    }
    nWall
    {
        type            wallHeatTransfer;
        Tinf            uniform 308.2;
        alphaWall       uniform 0.54;
        value           nonuniform List<scalar> 
14
(
303.575
303.436
303.291
303.312
303.308
303.277
303.325
303.382
303.403
303.305
303.256
303.242
303.255
303.336
)
;
    }
    sideWalls
    {
        type            empty;
    }
    glass1
    {
        type            wallHeatTransfer;
        Tinf            uniform 315.2;
        alphaWall       uniform 4.3;
        value           nonuniform List<scalar> 9(311.626 310.812 310.3 309.912 309.605 309.359 309.142 308.996 309.046);
    }
    glass2
    {
        type            wallHeatTransfer;
        Tinf            uniform 308.2;
        alphaWall       uniform 4.3;
        value           nonuniform List<scalar> 2(305.747 305.676);
    }
    sun
    {
        type            wallHeatTransfer;
        Tinf            uniform 305.2;
        alphaWall       uniform 0.36;
        value           nonuniform List<scalar> 
14
(
303.018
302.731
302.719
302.7
302.684
302.669
302.656
302.643
302.631
302.618
302.605
302.591
302.576
302.56
)
;
    }
    Table_master
    {
        type            zeroGradient;
    }
    Table_slave
    {
        type            zeroGradient;
    }
    inlet
    {
        type            fixedValue;
        value           uniform 293.15;
    }
    outlet
    {
        type            zeroGradient;
    }
}


// ************************************************************************* //
