/*--------------------------------*- C++ -*----------------------------------*\
  =========                 |
  \\      /  F ield         | OpenFOAM: The Open Source CFD Toolbox
   \\    /   O peration     | Website:  https://openfoam.org
    \\  /    A nd           | Version:  6
     \\/     M anipulation  |
\*---------------------------------------------------------------------------*/
FoamFile
{
    version     2.0;
    format      ascii;
    class       volVectorField;
    location    "31999.9999978115338";
    object      U;
}
// * * * * * * * * * * * * * * * * * * * * * * * * * * * * * * * * * * * * * //

dimensions      [0 1 -1 0 0 0 0];

internalField   nonuniform List<vector> 
778
(
(0.0656019 0.0794076 0)
(-0.155173 0.0157664 0)
(-0.164302 0.0146269 0)
(-0.192422 0.0122765 0)
(-0.216861 0.00872484 0)
(-0.236922 0.00474171 0)
(-0.252048 0.000412266 0)
(-0.261812 -0.00437553 0)
(-0.265703 -0.00981976 0)
(-0.262717 -0.0162005 0)
(-0.250902 -0.0242734 0)
(-0.226195 -0.0348895 0)
(-0.186073 -0.0504058 0)
(-0.144151 -0.0751683 0)
(-0.150055 -0.108549 0)
(0.0546602 0.0354288 0)
(0.0157734 -0.0268552 0)
(0.0449471 -0.0232445 0)
(0.0693243 -0.0161416 0)
(0.0843564 -0.0103391 0)
(0.091546 -0.00641192 0)
(0.0943777 -0.00434002 0)
(0.0954201 -0.0033174 0)
(0.095882 -0.00272863 0)
(0.0960551 -0.00231418 0)
(0.0959285 -0.00194926 0)
(0.0953995 -0.00150934 0)
(0.0941407 -0.00075677 0)
(0.091295 0.000845561 0)
(0.0850939 0.0040662 0)
(0.0735618 0.00776629 0)
(0.0599281 0.0115985 0)
(-0.00798289 0.0299776 0)
(0.258403 0.167391 0)
(-0.161232 0.0483923 0)
(-0.141603 0.0459848 0)
(-0.174011 0.0416197 0)
(-0.199377 0.0356712 0)
(-0.2201 0.029129 0)
(-0.23613 0.0220531 0)
(-0.247378 0.014218 0)
(-0.253546 0.00528136 0)
(-0.253853 -0.00517113 0)
(-0.247688 -0.0171008 0)
(-0.233975 -0.030864 0)
(-0.214063 -0.0480813 0)
(-0.197484 -0.0699556 0)
(-0.193961 -0.0826348 0)
(-0.166347 -0.0425649 0)
(-0.105303 -0.0363829 0)
(-0.0983312 -0.0444602 0)
(0.109351 -0.0420937 0)
(0.0644924 -0.041142 0)
(0.0719201 -0.0322319 0)
(0.0858761 -0.0206734 0)
(0.0937486 -0.0104282 0)
(0.0959628 -0.00362888 0)
(0.0957167 -0.000206087 0)
(0.0953304 0.00123725 0)
(0.0952971 0.00189074 0)
(0.09538 0.00226968 0)
(0.0953882 0.00259367 0)
(0.0952883 0.00313475 0)
(0.094997 0.00441301 0)
(0.0937396 0.00772515 0)
(0.0881404 0.0167556 0)
(0.0743806 0.0253243 0)
(0.0630774 0.0329131 0)
(-0.052111 0.063561 0)
(0.429987 0.253951 0)
(-0.194231 0.0847592 0)
(-0.112776 0.0784387 0)
(-0.148244 0.0669628 0)
(-0.170678 0.0555047 0)
(-0.188774 0.0437266 0)
(-0.202611 0.0313362 0)
(-0.2123 0.0179915 0)
(-0.217645 0.00337594 0)
(-0.217994 -0.0126592 0)
(-0.212728 -0.0303517 0)
(-0.201614 -0.0499314 0)
(-0.185969 -0.0715822 0)
(-0.169431 -0.0932141 0)
(-0.151061 -0.104557 0)
(-0.120227 -0.0931334 0)
(-0.0795484 -0.0949248 0)
(-0.0715049 -0.10755 0)
(0.0921024 -0.0881942 0)
(0.0625629 -0.065734 0)
(0.0743634 -0.0460762 0)
(0.0879859 -0.0291767 0)
(0.0948066 -0.0148281 0)
(0.0918782 -0.0119522 0)
(0.0876466 -0.00793181 0)
(0.0852809 -0.00578842 0)
(0.0845787 -0.00457051 0)
(0.0845474 -0.00380455 0)
(0.0848027 -0.00322781 0)
(0.0854579 -0.00259871 0)
(0.0872216 -0.00143967 0)
(0.091907 0.00291798 0)
(0.0900511 0.0251095 0)
(0.0732181 0.0423466 0)
(0.0700259 0.0573904 0)
(-0.0903159 0.100843 0)
(0.578561 0.325835 0)
(-0.240103 0.121808 0)
(-0.0808282 0.10923 0)
(-0.121571 0.0898628 0)
(-0.139006 0.0740764 0)
(-0.153069 0.058637 0)
(-0.16383 0.0427447 0)
(-0.171424 0.0257898 0)
(-0.17563 0.00716783 0)
(-0.175688 -0.0135681 0)
(-0.17099 -0.0365063 0)
(-0.161414 -0.0614827 0)
(-0.147542 -0.0873829 0)
(-0.130563 -0.110294 0)
(-0.109606 -0.123183 0)
(-0.0821315 -0.124517 0)
(-0.0525215 -0.126338 0)
(-0.0333799 -0.123131 0)
(0.0163533 -0.0567918 0)
(0.060821 -0.0930455 0)
(0.0684528 -0.0791611 0)
(0.0790659 -0.0587643 0)
(0.0915583 -0.0395023 0)
(0.102901 -0.0208358 0)
(0.115643 -0.0131299 0)
(0.126772 -0.00877223 0)
(0.132348 -0.00558618 0)
(0.133325 -0.00309487 0)
(0.130807 -0.000879147 0)
(0.125353 0.00128859 0)
(0.116829 0.00367342 0)
(0.104463 0.00673569 0)
(0.0851816 0.0111752 0)
(0.071294 0.0368752 0)
(0.0599598 0.0605728 0)
(0.0761493 0.0832604 0)
(-0.118399 0.136935 0)
(0.70575 0.383673 0)
(-0.287684 0.157 0)
(-0.047687 0.133788 0)
(-0.0962854 0.10693 0)
(-0.107736 0.0876075 0)
(-0.116773 0.0691811 0)
(-0.123566 0.0504454 0)
(-0.128229 0.0305717 0)
(-0.130588 0.00869277 0)
(-0.129777 -0.0158625 0)
(-0.125268 -0.0431214 0)
(-0.116634 -0.0727162 0)
(-0.103903 -0.102834 0)
(-0.0874214 -0.129071 0)
(-0.0674612 -0.145754 0)
(-0.0441141 -0.152225 0)
(-0.0202497 -0.152328 0)
(0.000292732 -0.14368 0)
(0.0308144 -0.114975 0)
(0.0569688 -0.109339 0)
(0.0705289 -0.0923949 0)
(0.0806542 -0.0711943 0)
(0.0907092 -0.0507221 0)
(0.100263 -0.0326822 0)
(0.109363 -0.0193291 0)
(0.116373 -0.00997717 0)
(0.119786 -0.00330063 0)
(0.119981 0.0019385 0)
(0.117572 0.00647403 0)
(0.112927 0.0108232 0)
(0.106067 0.0155001 0)
(0.0969157 0.0212077 0)
(0.08496 0.0292421 0)
(0.0733485 0.0472944 0)
(0.0627372 0.0713498 0)
(0.0943334 0.0993686 0)
(0.015997 0.138094 0)
(0.0954677 0.183053 0)
(0.141254 0.14414 0)
(-0.220086 0.202276 0)
(0.810471 0.431963 0)
(-0.33133 0.190666 0)
(-0.0173004 0.150254 0)
(-0.0733584 0.117534 0)
(-0.0785824 0.0955297 0)
(-0.0822089 0.0749607 0)
(-0.0844703 0.0543487 0)
(-0.0855152 0.0327107 0)
(-0.0852659 0.00883413 0)
(-0.0825937 -0.0184514 0)
(-0.0774221 -0.04907 0)
(-0.0687836 -0.0825348 0)
(-0.0567689 -0.116515 0)
(-0.0416854 -0.146293 0)
(-0.0246643 -0.165972 0)
(-0.00625384 -0.174461 0)
(0.0121442 -0.172702 0)
(0.0280581 -0.160956 0)
(0.0462084 -0.139278 0)
(0.0626337 -0.1223 0)
(0.0732768 -0.102436 0)
(0.0809313 -0.0803647 0)
(0.0876698 -0.059007 0)
(0.0938346 -0.040131 0)
(0.0991514 -0.0249741 0)
(0.102827 -0.0136459 0)
(0.104425 -0.00498462 0)
(0.103998 0.00217794 0)
(0.101857 0.00862198 0)
(0.0982448 0.0148728 0)
(0.0933127 0.0214651 0)
(0.0872786 0.0290391 0)
(0.0803836 0.0385114 0)
(0.0745465 0.0530273 0)
(0.0691046 0.0731002 0)
(0.0910311 0.0987882 0)
(0.0724583 0.107239 0)
(0.0890668 0.0470388 0)
(0.146546 -0.0378244 0)
(-0.329068 0.108033 0)
(0.87996 0.474671 0)
(-0.368658 0.220944 0)
(0.00374537 0.15556 0)
(-0.0526488 0.121585 0)
(-0.0521934 0.0978754 0)
(-0.0510199 0.0758459 0)
(-0.0490258 0.054061 0)
(-0.0465209 0.031538 0)
(-0.0433486 0.00675861 0)
(-0.0374011 -0.0223299 0)
(-0.0303302 -0.0554101 0)
(-0.0205375 -0.0919799 0)
(-0.00870383 -0.12892 0)
(0.00454964 -0.161251 0)
(0.0176613 -0.181879 0)
(0.030488 -0.190191 0)
(0.0423177 -0.18718 0)
(0.0526238 -0.174352 0)
(0.0625744 -0.153986 0)
(0.0711178 -0.13232 0)
(0.0766045 -0.109287 0)
(0.0800267 -0.0857675 0)
(0.0825886 -0.0635761 0)
(0.0847917 -0.0440749 0)
(0.0865937 -0.027993 0)
(0.0876632 -0.015234 0)
(0.0877831 -0.00501337 0)
(0.0868078 0.00359558 0)
(0.0849304 0.0112829 0)
(0.0822944 0.0185826 0)
(0.0790684 0.0260094 0)
(0.0755163 0.0340825 0)
(0.0720123 0.0433752 0)
(0.0698858 0.055189 0)
(0.0684229 0.0698828 0)
(0.0810654 0.0890708 0)
(0.0834659 0.0920518 0)
(0.088327 0.0533664 0)
(0.18173 0.0237994 0)
(-0.283171 0.155226 0)
(0.928022 0.517123 0)
(-0.383188 0.234143 0)
(0.0169332 0.132971 0)
(-0.027308 0.116673 0)
(-0.0265308 0.0949509 0)
(-0.0227316 0.0724617 0)
(-0.0176336 0.0501331 0)
(-0.0123749 0.0272688 0)
(-0.00545001 0.00187795 0)
(0.00452452 -0.0307607 0)
(0.0142337 -0.0653695 0)
(0.0255408 -0.103387 0)
(0.0372135 -0.140913 0)
(0.0479388 -0.172183 0)
(0.057085 -0.192357 0)
(0.064621 -0.19981 0)
(0.070368 -0.19535 0)
(0.0743251 -0.181117 0)
(0.0770056 -0.160001 0)
(0.0783307 -0.135981 0)
(0.0779253 -0.110944 0)
(0.0763699 -0.0863974 0)
(0.0744971 -0.0638178 0)
(0.0728331 -0.0442147 0)
(0.0715183 -0.0279751 0)
(0.0704243 -0.0148198 0)
(0.0693643 -0.00404622 0)
(0.0680516 0.00513135 0)
(0.0666072 0.0133044 0)
(0.0650025 0.0209752 0)
(0.0633142 0.0285923 0)
(0.0617162 0.0365397 0)
(0.0604792 0.0451474 0)
(0.0604064 0.0549281 0)
(0.0612015 0.0658622 0)
(0.0693584 0.0794384 0)
(0.0778537 0.0825089 0)
(0.076206 0.0598868 0)
(0.240484 0.0501918 0)
(-0.549917 0.231094 0)
(1.01137 0.506771 0)
(-0.137239 0.296307 0)
(0.0410993 0.161493 0)
(0.040614 0.122082 0)
(0.0130994 0.0919914 0)
(0.00868154 0.0653964 0)
(0.0140939 0.0414243 0)
(0.0207027 0.0170055 0)
(0.0324856 -0.0110106 0)
(0.0439341 -0.0421623 0)
(0.0557957 -0.0769546 0)
(0.0680819 -0.114714 0)
(0.0792515 -0.151197 0)
(0.0878012 -0.18066 0)
(0.0930741 -0.198661 0)
(0.0951691 -0.203784 0)
(0.0944859 -0.197082 0)
(0.091569 -0.180987 0)
(0.087096 -0.158549 0)
(0.0815212 -0.133084 0)
(0.0751419 -0.10702 0)
(0.0685593 -0.0821808 0)
(0.0624967 -0.059928 0)
(0.0574757 -0.040998 0)
(0.053693 -0.0254913 0)
(0.0510586 -0.0129189 0)
(0.0493163 -0.00250211 0)
(0.0480718 0.00646323 0)
(0.0473111 0.0144909 0)
(0.0468076 0.0220424 0)
(0.0465131 0.0294838 0)
(0.0464732 0.0370822 0)
(0.0467989 0.0450216 0)
(0.0478623 0.0534946 0)
(0.0494332 0.0623416 0)
(0.0543675 0.0720862 0)
(0.0609048 0.0725811 0)
(0.0494718 0.0433473 0)
(0.290998 0.0688406 0)
(-0.785543 0.303531 0)
(0.779368 0.395644 0)
(0.000797124 0.319441 0)
(0.0933817 0.218874 0)
(0.110609 0.155135 0)
(0.0771726 0.106801 0)
(0.0597984 0.0675442 0)
(0.058216 0.0357756 0)
(0.0623736 0.00643177 0)
(0.0737803 -0.0234232 0)
(0.0853375 -0.0550564 0)
(0.0975274 -0.0898117 0)
(0.109404 -0.126372 0)
(0.11881 -0.160194 0)
(0.12396 -0.185917 0)
(0.124244 -0.199963 0)
(0.120075 -0.201501 0)
(0.112398 -0.191909 0)
(0.102281 -0.173749 0)
(0.0907651 -0.15006 0)
(0.0786924 -0.123874 0)
(0.066754 -0.0977245 0)
(0.0556788 -0.073525 0)
(0.0461923 -0.0525382 0)
(0.0387694 -0.0352214 0)
(0.033525 -0.0213853 0)
(0.0302436 -0.0102632 0)
(0.0284828 -0.000939616 0)
(0.0277863 0.00722752 0)
(0.0278909 0.0146992 0)
(0.0284635 0.0218652 0)
(0.0293765 0.0289879 0)
(0.0305734 0.0362433 0)
(0.0320088 0.0437644 0)
(0.0336693 0.0517083 0)
(0.0348596 0.0601854 0)
(0.0352657 0.0700303 0)
(0.0229802 0.0772339 0)
(0.0111421 0.0995816 0)
(0.0570251 0.167796 0)
(-0.662805 0.285687 0)
(0.617285 0.220752 0)
(0.00460218 0.298061 0)
(0.113015 0.241497 0)
(0.148297 0.177499 0)
(0.130867 0.123459 0)
(0.117849 0.0778046 0)
(0.114983 0.0388824 0)
(0.117137 0.00340321 0)
(0.123481 -0.0307066 0)
(0.131692 -0.0650173 0)
(0.141374 -0.100563 0)
(0.150267 -0.135508 0)
(0.15543 -0.165441 0)
(0.154925 -0.186001 0)
(0.14843 -0.194868 0)
(0.136834 -0.192073 0)
(0.121602 -0.179378 0)
(0.104234 -0.159371 0)
(0.086103 -0.134968 0)
(0.0683102 -0.108957 0)
(0.0517991 -0.0838114 0)
(0.0374285 -0.0613908 0)
(0.0259427 -0.0428127 0)
(0.0176318 -0.0281499 0)
(0.0123185 -0.0168471 0)
(0.00939875 -0.00777049 0)
(0.00817336 5.54993e-05 0)
(0.00827473 0.00716636 0)
(0.00918237 0.0139359 0)
(0.0106398 0.0206284 0)
(0.0125106 0.0273985 0)
(0.0146945 0.0343646 0)
(0.0170749 0.0416732 0)
(0.0195409 0.0496126 0)
(0.0216753 0.0588684 0)
(0.0231352 0.0718342 0)
(0.00933715 0.0930335 0)
(-0.00810798 0.138022 0)
(0.169565 0.180966 0)
(-0.561337 0.187672 0)
(0.570777 0.118425 0)
(-0.0203861 0.258568 0)
(0.1137 0.229827 0)
(0.165059 0.175989 0)
(0.16674 0.126125 0)
(0.164412 0.0810687 0)
(0.165395 0.0399743 0)
(0.168285 0.0016533 0)
(0.172221 -0.0353603 0)
(0.177773 -0.0719059 0)
(0.183934 -0.107638 0)
(0.187637 -0.139776 0)
(0.185858 -0.164409 0)
(0.177212 -0.178692 0)
(0.162139 -0.181817 0)
(0.142178 -0.174687 0)
(0.119265 -0.159353 0)
(0.0951563 -0.138269 0)
(0.0714479 -0.114163 0)
(0.0493523 -0.0895152 0)
(0.0300288 -0.0667139 0)
(0.0144329 -0.0474777 0)
(0.00318548 -0.0326184 0)
(-0.00409195 -0.0213942 0)
(-0.00804851 -0.0130989 0)
(-0.0099875 -0.00612077 0)
(-0.0105091 0.000240684 0)
(-0.00987249 0.0063278 0)
(-0.00847039 0.0123801 0)
(-0.00644571 0.0185424 0)
(-0.00392763 0.0249034 0)
(-0.00104214 0.0315626 0)
(0.00210735 0.0387412 0)
(0.00544245 0.0466438 0)
(0.00905664 0.0562981 0)
(0.0123172 0.0722063 0)
(0.00163706 0.102135 0)
(-0.0202276 0.144722 0)
(0.218132 0.183996 0)
(-0.472181 0.180962 0)
(0.628372 0.0537654 0)
(0.00900417 0.197278 0)
(0.11378 0.196867 0)
(0.175127 0.157837 0)
(0.191416 0.117612 0)
(0.198096 0.0772384 0)
(0.203425 0.0372863 0)
(0.208601 -0.00145702 0)
(0.213059 -0.0395965 0)
(0.21733 -0.0764995 0)
(0.21913 -0.110002 0)
(0.215297 -0.136917 0)
(0.203934 -0.154599 0)
(0.185122 -0.162029 0)
(0.16048 -0.159759 0)
(0.132178 -0.149208 0)
(0.102472 -0.132468 0)
(0.0730766 -0.111644 0)
(0.0457754 -0.0892709 0)
(0.021706 -0.067495 0)
(0.00242666 -0.0486641 0)
(-0.0112786 -0.0342613 0)
(-0.0194523 -0.0244426 0)
(-0.0242435 -0.0170251 0)
(-0.0268231 -0.0109048 0)
(-0.0279963 -0.00536879 0)
(-0.0280703 -9.37482e-05 0)
(-0.0271772 0.00512791 0)
(-0.0255065 0.0104697 0)
(-0.023148 0.0160582 0)
(-0.0202542 0.021988 0)
(-0.0170306 0.0283722 0)
(-0.0137395 0.0354034 0)
(-0.0105694 0.0434037 0)
(-0.00786469 0.0540444 0)
(-0.00970003 0.0749077 0)
(-0.0231682 0.105609 0)
(-0.0303542 0.128296 0)
(0.183748 0.17751 0)
(-0.503217 0.218366 0)
(0.473039 0.0748588 0)
(-0.132268 0.137492 0)
(0.0942415 0.133132 0)
(0.172756 0.116634 0)
(0.203905 0.0952195 0)
(0.218217 0.0643425 0)
(0.228188 0.0284151 0)
(0.237206 -0.00886628 0)
(0.243524 -0.0451986 0)
(0.244985 -0.0781948 0)
(0.238976 -0.105169 0)
(0.224132 -0.12402 0)
(0.200963 -0.133849 0)
(0.171388 -0.135088 0)
(0.138004 -0.128995 0)
(0.103126 -0.116856 0)
(0.0690995 -0.100557 0)
(0.0371231 -0.0817213 0)
(0.00960221 -0.0628652 0)
(-0.0129466 -0.0457518 0)
(-0.0271048 -0.0340455 0)
(-0.0358897 -0.0257761 0)
(-0.0410371 -0.0195392 0)
(-0.0440973 -0.0142533 0)
(-0.0457948 -0.0095057 0)
(-0.0464761 -0.00503428 0)
(-0.0462539 -0.00067859 0)
(-0.0451449 0.00371481 0)
(-0.0432603 0.00831719 0)
(-0.0406439 0.0133113 0)
(-0.0374943 0.018867 0)
(-0.0341467 0.0252023 0)
(-0.031189 0.0326956 0)
(-0.0293748 0.042227 0)
(-0.0297974 0.0570479 0)
(-0.0382394 0.0842281 0)
(-0.0600496 0.118586 0)
(-0.0588842 0.140439 0)
(-0.0043487 0.176484 0)
(-0.540902 0.201432 0)
(0.724221 0.134542 0)
(0.0818618 0.115272 0)
(0.149778 0.099067 0)
(0.222465 0.080253 0)
(0.24418 0.0697373 0)
(0.249003 0.0476017 0)
(0.255262 0.0176207 0)
(0.261312 -0.0145365 0)
(0.260275 -0.0445367 0)
(0.249731 -0.0694379 0)
(0.229426 -0.0874947 0)
(0.200926 -0.0981934 0)
(0.166608 -0.1018 0)
(0.129049 -0.0993148 0)
(0.0907978 -0.0920192 0)
(0.0533469 -0.0806124 0)
(0.0194929 -0.0667749 0)
(-0.0111948 -0.0516213 0)
(-0.0328264 -0.0397102 0)
(-0.0471997 -0.0311523 0)
(-0.0558706 -0.0252717 0)
(-0.0611905 -0.0205671 0)
(-0.0645216 -0.0163823 0)
(-0.0666282 -0.0124164 0)
(-0.0678068 -0.0086484 0)
(-0.0681567 -0.00504896 0)
(-0.0676903 -0.00153025 0)
(-0.0663372 0.0020584 0)
(-0.0642475 0.00590995 0)
(-0.0613618 0.0102855 0)
(-0.0578588 0.0154853 0)
(-0.0540664 0.021918 0)
(-0.0506417 0.0303108 0)
(-0.0482893 0.0422067 0)
(-0.0466137 0.0611304 0)
(-0.0486893 0.0928559 0)
(-0.0635395 0.136658 0)
(-0.0523628 0.172745 0)
(-0.0246542 0.164862 0)
(-0.573827 0.0662475 0)
(0.192245 0.0878332 0)
(0.225981 0.0994968 0)
(0.246732 0.0699365 0)
(0.242778 0.0398137 0)
(0.23988 0.0123373 0)
(0.23486 -0.0125643 0)
(0.220122 -0.0330328 0)
(0.196358 -0.0482368 0)
(0.165879 -0.0581238 0)
(0.131141 -0.0631315 0)
(0.0939627 -0.0635454 0)
(0.0564061 -0.0601521 0)
(0.0205132 -0.0538751 0)
(-0.0142831 -0.0449316 0)
(-0.0408021 -0.0366013 0)
(-0.0604501 -0.0298866 0)
(-0.0733474 -0.0255048 0)
(-0.0815367 -0.0223614 0)
(-0.0868225 -0.0196731 0)
(-0.0905086 -0.016837 0)
(-0.0931704 -0.0138439 0)
(-0.095031 -0.0108395 0)
(-0.096153 -0.00795736 0)
(-0.0965441 -0.00522507 0)
(-0.0961786 -0.00256079 0)
(-0.0949264 0.000212532 0)
(-0.0929249 0.00329484 0)
(-0.0899624 0.00694943 0)
(-0.0859803 0.0115783 0)
(-0.0809845 0.0177198 0)
(-0.0751924 0.0262553 0)
(-0.0687205 0.0387973 0)
(-0.0600688 0.0582669 0)
(-0.0476017 0.0890447 0)
(-0.0387916 0.134535 0)
(-0.0236622 0.188941 0)
(0.120518 0.180807 0)
(-0.448181 0.0373976 0)
(0.451529 0.209146 0)
(0.206731 0.178396 0)
(0.152982 0.118619 0)
(0.13981 0.0640638 0)
(0.12844 0.026086 0)
(0.1143 0.00208458 0)
(0.0989822 -0.0126019 0)
(0.0778251 -0.0216809 0)
(0.0528659 -0.0272493 0)
(0.0253097 -0.0297278 0)
(-0.00507947 -0.0290739 0)
(-0.0343966 -0.0264561 0)
(-0.0601521 -0.023307 0)
(-0.081188 -0.0207798 0)
(-0.0961791 -0.019752 0)
(-0.106222 -0.019389 0)
(-0.112852 -0.0190313 0)
(-0.117727 -0.0178497 0)
(-0.121744 -0.0157459 0)
(-0.125212 -0.0129639 0)
(-0.128141 -0.00989342 0)
(-0.130462 -0.00689362 0)
(-0.13212 -0.00422123 0)
(-0.133094 -0.00199304 0)
(-0.133362 -0.000181734 0)
(-0.132831 0.0013699 0)
(-0.131242 0.00289496 0)
(-0.128451 0.00470599 0)
(-0.123979 0.00722723 0)
(-0.117406 0.0110703 0)
(-0.108402 0.0172439 0)
(-0.0965119 0.0273566 0)
(-0.0801062 0.0437145 0)
(-0.056307 0.0689856 0)
(-0.0272601 0.105478 0)
(-0.00126321 0.155709 0)
(0.171253 0.155619 0)
(-0.381656 0.0933833 0)
(0.361001 -0.414414 0)
(-0.345362 -0.512081 0)
(-0.218203 -0.0282561 0)
(-0.0927664 0.110682 0)
(-0.0534776 0.0925886 0)
(-0.0311216 0.0548 0)
(-0.0262862 0.0288011 0)
(-0.0313316 0.0121987 0)
(-0.0403837 0.00154074 0)
(-0.0511417 -0.00536823 0)
(-0.0650828 -0.00955631 0)
(-0.0808196 -0.0118873 0)
(-0.0971687 -0.0136062 0)
(-0.112619 -0.015966 0)
(-0.125937 -0.0188672 0)
(-0.135787 -0.0219356 0)
(-0.142031 -0.0247261 0)
(-0.146131 -0.0266154 0)
(-0.149596 -0.0275978 0)
(-0.153222 -0.0278362 0)
(-0.157128 -0.0275434 0)
(-0.161144 -0.0268816 0)
(-0.165024 -0.0259454 0)
(-0.16852 -0.0247481 0)
(-0.171406 -0.0232535 0)
(-0.173501 -0.0214366 0)
(-0.174702 -0.0193272 0)
(-0.174954 -0.0169948 0)
(-0.174146 -0.0144635 0)
(-0.171983 -0.0116609 0)
(-0.167902 -0.00838135 0)
(-0.161019 -0.00412444 0)
(-0.150338 0.00201981 0)
(-0.13483 0.01139 0)
(-0.113076 0.0250979 0)
(-0.0828976 0.0432705 0)
(-0.0440017 0.0660193 0)
(-0.00291947 0.101153 0)
(0.190867 0.127499 0)
(-0.401488 0.15308 0)
(0.123743 -0.185068 0)
(-0.387548 -0.297425 0)
(-0.342831 -0.0967254 0)
(-0.264641 0.0511024 0)
(-0.210978 0.0832763 0)
(-0.178833 0.0744688 0)
(-0.162506 0.0611142 0)
(-0.156438 0.0512752 0)
(-0.156441 0.0462142 0)
(-0.159676 0.0456805 0)
(-0.164249 0.0488098 0)
(-0.168579 0.0543477 0)
(-0.17179 0.0608117 0)
(-0.173723 0.0660578 0)
(-0.174852 0.0671121 0)
(-0.176171 0.063561 0)
(-0.178362 0.0591428 0)
(-0.181633 0.056493 0)
(-0.18568 0.0561291 0)
(-0.190039 0.0574438 0)
(-0.194278 0.0596235 0)
(-0.198091 0.061943 0)
(-0.201311 0.063777 0)
(-0.203873 0.0646306 0)
(-0.205761 0.0642264 0)
(-0.206965 0.0625706 0)
(-0.207465 0.0598868 0)
(-0.207246 0.0564006 0)
(-0.206264 0.0521041 0)
(-0.204349 0.0466898 0)
(-0.201106 0.0398156 0)
(-0.19589 0.0313492 0)
(-0.187922 0.0216684 0)
(-0.176443 0.0116312 0)
(-0.160576 0.00185589 0)
(-0.138762 -0.00845981 0)
(-0.107166 -0.018905 0)
(-0.0576912 -0.0158653 0)
(0.193102 0.0669574 0)
(-0.46473 0.210536 0)
(1.14764 -0.010796 0)
(-0.295631 -0.322291 0)
(-0.352733 -0.232521 0)
(-0.352327 -0.148222 0)
(-0.328769 -0.106969 0)
(-0.297189 -0.0983233 0)
(-0.26984 -0.100342 0)
(-0.249754 -0.105731 0)
(-0.235903 -0.112888 0)
(-0.226209 -0.121866 0)
(-0.218902 -0.133237 0)
(-0.212954 -0.147412 0)
(-0.208095 -0.163646 0)
(-0.204677 -0.179239 0)
(-0.203575 -0.189816 0)
(-0.205782 -0.193609 0)
(-0.211258 -0.192918 0)
(-0.218661 -0.189766 0)
(-0.226455 -0.185809 0)
(-0.233547 -0.18197 0)
(-0.239365 -0.178562 0)
(-0.243705 -0.175533 0)
(-0.246627 -0.172657 0)
(-0.248388 -0.169661 0)
(-0.249384 -0.166294 0)
(-0.250038 -0.162373 0)
(-0.250691 -0.157795 0)
(-0.251576 -0.152542 0)
(-0.252955 -0.146649 0)
(-0.255277 -0.140134 0)
(-0.259195 -0.132819 0)
(-0.265393 -0.124051 0)
(-0.27436 -0.112375 0)
(-0.286208 -0.0955138 0)
(-0.30013 -0.0711172 0)
(-0.312315 -0.0380982 0)
(-0.31182 0.00344064 0)
(-0.28527 0.0559323 0)
(-0.265137 0.124377 0)
(-0.606029 0.212963 0)
)
;

boundaryField
{
    floor
    {
        type            noSlip;
    }
    ceiling
    {
        type            noSlip;
    }
    sWall
    {
        type            noSlip;
    }
    nWall
    {
        type            noSlip;
    }
    sideWalls
    {
        type            empty;
    }
    glass1
    {
        type            noSlip;
    }
    glass2
    {
        type            noSlip;
    }
    sun
    {
        type            noSlip;
    }
    Table_master
    {
        type            noSlip;
    }
    Table_slave
    {
        type            noSlip;
    }
    inlet
    {
        type            fixedValue;
        value           uniform (0.5 0 0);
    }
    outlet
    {
        type            zeroGradient;
    }
}


// ************************************************************************* //
