/*--------------------------------*- C++ -*----------------------------------*\
  =========                 |
  \\      /  F ield         | OpenFOAM: The Open Source CFD Toolbox
   \\    /   O peration     | Website:  https://openfoam.org
    \\  /    A nd           | Version:  6
     \\/     M anipulation  |
\*---------------------------------------------------------------------------*/
FoamFile
{
    version     2.0;
    format      ascii;
    class       volScalarField;
    location    "1060";
    object      k;
}
// * * * * * * * * * * * * * * * * * * * * * * * * * * * * * * * * * * * * * //

dimensions      [0 2 -2 0 0 0 0];

internalField   nonuniform List<scalar> 
458
(
0.00226795
0.00268626
0.00280906
0.00308428
0.00334915
0.00360999
0.00388071
0.00416557
0.00440592
0.00456032
0.00457781
0.00441296
0.0040221
0.00325453
0.00187348
0.000457635
0.000628893
0.000808363
0.00087888
0.0008516
0.000745751
0.000636826
0.00054665
0.000474102
0.000415279
0.000367098
0.000327376
0.000294055
0.000265262
0.000239323
0.000214619
0.000200574
0.000169417
0.00412327
0.00755207
0.00415077
0.00437478
0.00471674
0.00513614
0.00563335
0.00619779
0.00680186
0.00731431
0.0075896
0.0075321
0.00712456
0.00635512
0.00513877
0.0032644
0.00224689
0.00149571
0.000450302
0.000973164
0.00130334
0.00145847
0.00147285
0.00125949
0.00102445
0.000834091
0.000688801
0.000577369
0.000490698
0.000421536
0.000364717
0.000317453
0.000283522
0.00026439
0.000493849
0.000292748
0.00609544
0.0136489
0.00491207
0.00472573
0.00494247
0.00528707
0.00575204
0.00634226
0.00699545
0.00755218
0.00789419
0.0079514
0.00769475
0.00706152
0.00603781
0.00488893
0.00391904
0.00208659
0.00106811
0.00139971
0.00160365
0.00173052
0.00172299
0.00134729
0.00103264
0.000802703
0.00063766
0.000518303
0.000430643
0.000365366
0.000316497
0.000280911
0.000262154
0.00026545
0.000780306
0.000408849
0.00835921
0.0222356
0.00592773
0.0047077
0.00474736
0.00501747
0.00547481
0.00616935
0.00689404
0.00746468
0.00783557
0.00795544
0.00774993
0.00714699
0.00628795
0.00543639
0.00463297
0.0035007
0.00276939
0.00250718
0.00237435
0.00233845
0.00228992
0.00215223
0.00170973
0.00143663
0.00126421
0.00114403
0.00104707
0.000954924
0.000871367
0.000787231
0.000694294
0.000530248
0.000422789
0.00113249
0.000542378
0.0110416
0.0339558
0.00842462
0.00475062
0.00448382
0.00470912
0.00530071
0.00635644
0.00718625
0.00774084
0.00809659
0.00819886
0.00790193
0.00718376
0.00621696
0.00530994
0.00458032
0.00397898
0.00379502
0.00347988
0.00325291
0.00307107
0.0028597
0.00259078
0.00230311
0.002107
0.00198691
0.0018922
0.00179013
0.00166137
0.00149208
0.00129929
0.00109399
0.000865754
0.000664812
0.000922204
0.00106382
0.000969416
0.00108637
0.00128348
0.014326
0.0466867
0.0149509
0.00592423
0.00474348
0.00478436
0.00570904
0.00726852
0.00803318
0.00847562
0.0087401
0.00874923
0.00832175
0.00738002
0.00612553
0.00496693
0.00418431
0.00384223
0.00381454
0.00382355
0.00373237
0.00350931
0.00318986
0.00283548
0.00254836
0.0023958
0.0023221
0.00226348
0.00218534
0.00206542
0.00187858
0.00164903
0.00140046
0.00114688
0.000935671
0.000900751
0.00103006
0.00105444
0.00165139
0.00138073
0.0179758
0.0550457
0.0270777
0.0123625
0.00831056
0.00741456
0.00850751
0.0092116
0.0094875
0.00964711
0.00973129
0.00958517
0.00894862
0.00771052
0.00611109
0.00469961
0.0038876
0.00373657
0.00389888
0.0039833
0.00385419
0.00355105
0.0031717
0.00281259
0.00256802
0.00246902
0.00245208
0.00245735
0.00245521
0.00242475
0.00233625
0.00214745
0.00191086
0.00165913
0.00145737
0.00136471
0.00145105
0.00168157
0.00223398
0.00194891
0.0189407
0.0568405
0.0383013
0.0271729
0.0197448
0.0158844
0.0137279
0.0122904
0.0115379
0.0112138
0.0110114
0.0106115
0.00964788
0.00799586
0.00597499
0.00439306
0.00367789
0.00365586
0.00378034
0.00375071
0.00351739
0.00317067
0.00282071
0.0025511
0.0024085
0.00238405
0.00243158
0.00251765
0.00263037
0.00276721
0.0029255
0.00306711
0.00310947
0.0031391
0.00329225
0.00386919
0.00511938
0.0068156
0.0128312
0.00467712
0.0182043
0.026466
0.024362
0.0217105
0.0188865
0.0164649
0.014655
0.013592
0.0130885
0.01277
0.0123594
0.0115982
0.0100727
0.00777
0.00515978
0.00385813
0.00340307
0.00331005
0.00325349
0.00309183
0.00282392
0.00252822
0.00228303
0.00213467
0.00208924
0.00212346
0.00220973
0.00233315
0.00249007
0.00268166
0.00290931
0.00317119
0.00348977
0.00390096
0.00444784
0.00509754
0.00569688
0.00606936
0.00624871
0.00408134
0.00718446
0.0110943
0.0135427
0.0147742
0.0154391
0.0157104
0.0153805
0.0144554
0.0132161
0.011588
0.00880985
0.00585869
0.0040362
0.00322559
0.00288152
0.00270043
0.00252811
0.00231827
0.002091
0.00188818
0.00175208
0.00169312
0.00169785
0.00174767
0.00182976
0.00193922
0.00207746
0.00225112
0.00247287
0.00276576
0.00313122
0.003567
0.0040509
0.00449041
0.00471258
0.00457284
0.00410686
0.00264226
0.00805079
0.0194714
0.0216142
0.0215045
0.0207318
0.0184798
0.0153408
0.0120166
0.00883442
0.00623626
0.00435121
0.00326389
0.00271607
0.00241211
0.0022103
0.00203223
0.00184749
0.00166458
0.00150895
0.0013987
0.00133801
0.00132608
0.00135485
0.00141864
0.00151584
0.00164785
0.00181795
0.00203046
0.00229589
0.00262431
0.00302435
0.0034968
0.00401536
0.00451212
0.00481677
0.00510142
0.00428743
0.0027114
0.00890517
0.00935062
0.00976451
0.0120866
0.0107985
0.00847984
0.00603546
0.00437049
0.00348249
0.00273194
0.00214612
0.0017366
0.0014236
0.00120707
0.00106709
0.000970283
0.000895765
0.000834031
0.000784719
0.000752293
0.000740371
0.000749313
0.000776163
0.00081649
0.000868906
0.000933129
0.00100985
0.00110073
0.00120881
0.00133953
0.00149644
0.00168142
0.00189881
0.00215358
0.00245034
0.00283121
0.00300659
0.00288471
0.00249568
0.0021348
)
;

boundaryField
{
    floor
    {
        type            kqRWallFunction;
        value           nonuniform List<scalar> 
36
(
0.00187348
0.000457635
0.000628893
0.000808363
0.00087888
0.0008516
0.000745751
0.000636826
0.00054665
0.000474102
0.000415279
0.000367098
0.000327376
0.000294055
0.000265262
0.000239323
0.000214619
0.000200574
0.000169417
0.000169417
0.000292748
0.000408849
0.000542378
0.000969416
0.00108637
0.00128348
0.00187348
0.0032644
0.00224689
0.00149571
0.000457635
0.00149571
0.000450302
0.00208659
0.00106811
0.00276939
)
;
    }
    ceiling
    {
        type            kqRWallFunction;
        value           nonuniform List<scalar> 
43
(
0.00890517
0.00935062
0.00976451
0.0120866
0.0107985
0.00847984
0.00603546
0.00437049
0.00348249
0.00273194
0.00214612
0.0017366
0.0014236
0.00120707
0.00106709
0.000970283
0.000895765
0.000834031
0.000784719
0.000752293
0.000740371
0.000749313
0.000776163
0.00081649
0.000868906
0.000933129
0.00100985
0.00110073
0.00120881
0.00133953
0.00149644
0.00168142
0.00189881
0.00215358
0.00245034
0.00283121
0.00300659
0.00288471
0.00249568
0.0021348
0.0182043
0.026466
0.00805079
)
;
    }
    sWall
    {
        type            kqRWallFunction;
        value           uniform 0.00890517;
    }
    nWall
    {
        type            kqRWallFunction;
        value           nonuniform List<scalar> 6(0.00128348 0.00138073 0.00194891 0.00264226 0.0027114 0.0021348);
    }
    sideWalls
    {
        type            empty;
    }
    glass1
    {
        type            kqRWallFunction;
        value           nonuniform List<scalar> 9(0.00226795 0.00412327 0.00609544 0.00835921 0.0110416 0.014326 0.0179758 0.0189407 0.0182043);
    }
    glass2
    {
        type            kqRWallFunction;
        value           nonuniform List<scalar> 2(0.00467712 0.00408134);
    }
    sun
    {
        type            kqRWallFunction;
        value           nonuniform List<scalar> 
14
(
0.00226795
0.00268626
0.00280906
0.00308428
0.00334915
0.00360999
0.00388071
0.00416557
0.00440592
0.00456032
0.00457781
0.00441296
0.0040221
0.00325453
)
;
    }
    Table_master
    {
        type            kqRWallFunction;
        value           nonuniform List<scalar> 9(0.00134729 0.00103264 0.000802703 0.00063766 0.000518303 0.000430643 0.000365366 0.000316497 0.000280911);
    }
    Table_slave
    {
        type            kqRWallFunction;
        value           nonuniform List<scalar> 9(0.00170973 0.00143663 0.00126421 0.00114403 0.00104707 0.000954924 0.000871367 0.000787231 0.000694294);
    }
    inlet
    {
        type            turbulentIntensityKineticEnergyInlet;
        intensity       0.05;
        value           uniform 0.000937501;
    }
    outlet
    {
        type            zeroGradient;
    }
}


// ************************************************************************* //
