/*--------------------------------*- C++ -*----------------------------------*\
  =========                 |
  \\      /  F ield         | OpenFOAM: The Open Source CFD Toolbox
   \\    /   O peration     | Website:  https://openfoam.org
    \\  /    A nd           | Version:  6
     \\/     M anipulation  |
\*---------------------------------------------------------------------------*/
FoamFile
{
    version     2.0;
    format      ascii;
    class       volScalarField;
    location    "1060";
    object      nut;
}
// * * * * * * * * * * * * * * * * * * * * * * * * * * * * * * * * * * * * * //

dimensions      [0 2 -1 0 0 0 0];

internalField   nonuniform List<scalar> 
458
(
0.00106945
0.00116391
0.00119021
0.00124716
0.00129961
0.00134926
0.00139894
0.00144938
0.00149061
0.0015165
0.0015194
0.0014918
0.0014242
0.00128112
0.000972007
0.000480401
0.000563161
0.000638481
0.000665747
0.000655334
0.000613256
0.000566702
0.000525048
0.000488968
0.00045763
0.000430264
0.00040632
0.000385087
0.000365748
0.000347406
0.000328987
0.00031804
0.000292296
0.001442
0.00324164
0.00298996
0.00342593
0.00386064
0.00430781
0.00470908
0.00501938
0.00533805
0.00563629
0.00587544
0.00602066
0.00603411
0.00582404
0.00473319
0.00128306
0.00106447
0.000868496
0.000476537
0.00113087
0.0016481
0.00204855
0.00217521
0.0015853
0.00133831
0.00117024
0.00104621
0.000951182
0.000875782
0.00081075
0.000749652
0.000688665
0.000634192
0.00058852
0.00071999
0.00038423
0.00175326
0.00435724
0.00359578
0.00438429
0.00471586
0.00494873
0.00512769
0.00529282
0.00552254
0.00580163
0.00610661
0.0064056
0.00664181
0.00672449
0.00633616
0.00516399
0.00391359
0.0010258
0.000733928
0.00126646
0.00184285
0.00241622
0.00258006
0.00082428
0.000721639
0.000636242
0.000567073
0.000511253
0.000466019
0.000429248
0.000399511
0.000376382
0.000417086
0.000483044
0.0008448
0.000454074
0.00205318
0.00556612
0.00349817
0.00454251
0.00472424
0.00470649
0.00468996
0.00476918
0.00495597
0.00523198
0.00558275
0.00597427
0.00631741
0.00653326
0.00648451
0.00614905
0.00527742
0.00289741
0.00118178
0.00150468
0.00206857
0.00275921
0.00335809
0.00338778
0.000928555
0.000851171
0.000798463
0.000759561
0.000726661
0.000693951
0.000662895
0.00063008
0.00059172
0.000557311
0.000549167
0.00100695
0.000522993
0.00235972
0.00719274
0.00366961
0.00431239
0.00457206
0.00441773
0.00429212
0.00436417
0.00456139
0.00484847
0.00522653
0.00565582
0.00599211
0.00615979
0.00615585
0.00603842
0.00569043
0.00470556
0.0042649
0.00429588
0.0045464
0.00484492
0.00502831
0.00494609
0.00422018
0.00384697
0.00364132
0.00349403
0.00334491
0.00315295
0.00282612
0.00240524
0.00192652
0.00146538
0.00109905
0.00102394
0.000888916
0.000699197
0.000740172
0.000804523
0.00268786
0.00902564
0.00502633
0.00399304
0.00435203
0.00434344
0.00418316
0.00424345
0.00444447
0.00473149
0.00511489
0.00552629
0.00583767
0.00593769
0.00584394
0.00570937
0.00564874
0.00556763
0.00573526
0.00602609
0.00623034
0.00626718
0.0061305
0.00584378
0.00544304
0.0051174
0.00486379
0.00464031
0.00442074
0.0041876
0.0038864
0.00347344
0.00295114
0.00236042
0.00181372
0.00131513
0.00108088
0.000942915
0.0011874
0.000834448
0.00301085
0.010411
0.00750136
0.00490911
0.00427178
0.00433337
0.00438899
0.00442073
0.00453409
0.00478681
0.00516395
0.00557173
0.00585735
0.00588998
0.00571178
0.00558285
0.00579744
0.00627271
0.00675668
0.00703005
0.00703119
0.00679771
0.00640189
0.00591983
0.00543949
0.00505281
0.00475997
0.00452239
0.00431454
0.00412782
0.00395795
0.00373572
0.00337054
0.00288262
0.00237588
0.00188911
0.00157144
0.00143959
0.00137224
0.000991379
0.0030906
0.00966255
0.00820299
0.00688368
0.00587557
0.00542949
0.00501072
0.00472539
0.00471889
0.0049595
0.00534962
0.00575283
0.00599381
0.00594024
0.00572213
0.00577829
0.00639104
0.00689371
0.0071557
0.00714408
0.00686066
0.00637012
0.00576633
0.00515719
0.00465081
0.00429583
0.00405635
0.00388432
0.00375695
0.00367105
0.00363283
0.00363447
0.00353705
0.00324692
0.00296419
0.00280658
0.00287499
0.00303497
0.0036054
0.0015358
0.00302992
0.00365332
0.00403426
0.00424619
0.00427557
0.00421059
0.00421081
0.00438516
0.00474099
0.00519584
0.00566262
0.0060317
0.00615207
0.00594307
0.00588579
0.00619742
0.00655686
0.00668012
0.00659117
0.00627963
0.00575727
0.005112
0.00446763
0.00393866
0.00357258
0.00333939
0.00318294
0.00306402
0.00296262
0.00286739
0.00276977
0.00266261
0.00256542
0.00248132
0.00242567
0.00239441
0.00233494
0.00221224
0.002063
0.00143465
0.00133527
0.00234675
0.00322191
0.0039066
0.00453187
0.00514118
0.00562567
0.00595273
0.00616764
0.00620118
0.00600244
0.00575775
0.00576031
0.0058638
0.00578505
0.00555236
0.00518527
0.00469094
0.00412233
0.00356664
0.00312419
0.00282613
0.00264334
0.00253113
0.00245662
0.00240226
0.00236062
0.00232989
0.00231263
0.002318
0.00233155
0.00234367
0.00234439
0.00230743
0.00219319
0.00199178
0.00174214
0.00115434
0.00201495
0.0039575
0.00507567
0.00580109
0.00636589
0.0064157
0.00608764
0.00575775
0.00547374
0.0049289
0.00454135
0.00445197
0.00439114
0.00421954
0.00396073
0.00363975
0.00326342
0.00286737
0.00251022
0.00223242
0.00204076
0.00193024
0.0018784
0.00186718
0.00188542
0.00192599
0.0019828
0.00204852
0.00212547
0.00221379
0.00230832
0.00240116
0.00247673
0.00251452
0.00247947
0.00244894
0.00225473
0.00116934
0.00211917
0.00217152
0.00221906
0.00246886
0.0023336
0.00206794
0.00174462
0.0014846
0.00132522
0.00117376
0.00104033
0.000935824
0.000847303
0.000780207
0.000733578
0.00069951
0.000672112
0.000648538
0.000629074
0.000615939
0.000611039
0.000614718
0.000625635
0.000641682
0.000661959
0.000685986
0.000713629
0.00074505
0.000780772
0.000821904
0.000868709
0.000920836
0.000978555
0.00104214
0.00111162
0.0011949
0.00123135
0.00120613
0.00112186
0.00103758
)
;

boundaryField
{
    floor
    {
        type            nutkWallFunction;
        Cmu             0.09;
        kappa           0.41;
        E               9.8;
        value           nonuniform List<scalar> 
36
(
0.00011742
5.72054e-05
6.7728e-05
7.71397e-05
8.0513e-05
7.92266e-05
7.40034e-05
6.81737e-05
6.29076e-05
5.83044e-05
5.42718e-05
5.0722e-05
4.75926e-05
4.47978e-05
4.22352e-05
3.97885e-05
3.73146e-05
3.58358e-05
3.23308e-05
3.23307e-05
4.46841e-05
5.38112e-05
6.26455e-05
8.4628e-05
8.96379e-05
9.74409e-05
0.00011742
0.00015353
0.000128275
0.000105124
5.72053e-05
0.000105124
5.67085e-05
0.000123749
8.88771e-05
0.000141895
)
;
    }
    ceiling
    {
        type            nutkWallFunction;
        Cmu             0.09;
        kappa           0.41;
        E               9.8;
        value           nonuniform List<scalar> 
43
(
0.000246191
0.000251845
0.000256968
0.000283771
0.000269365
0.000240752
0.000205367
0.000176385
0.000158345
0.000140971
0.000125454
0.000113141
0.000102587
9.45014e-05
8.88341e-05
8.46666e-05
8.12974e-05
7.83853e-05
7.59713e-05
7.43372e-05
7.37265e-05
7.41851e-05
7.55438e-05
7.7536e-05
8.00447e-05
8.30055e-05
8.63966e-05
9.02323e-05
9.45698e-05
9.95354e-05
0.000105151
0.000111363
0.000118195
0.000125667
0.000133774
0.000143414
0.00014761
0.00014471
0.000134964
0.000125134
0.000343196
0.000407601
0.000234814
)
;
    }
    sWall
    {
        type            nutkWallFunction;
        Cmu             0.09;
        kappa           0.41;
        E               9.8;
        value           uniform 0.000246258;
    }
    nWall
    {
        type            nutkWallFunction;
        Cmu             0.09;
        kappa           0.41;
        E               9.8;
        value           nonuniform List<scalar> 6(9.74415e-05 0.000101045 0.00011971 0.00013874 0.000140475 0.000125142);
    }
    sideWalls
    {
        type            empty;
    }
    glass1
    {
        type            nutkWallFunction;
        Cmu             0.09;
        kappa           0.41;
        E               9.8;
        value           nonuniform List<scalar> 9(0.000128964 0.000171812 0.000206648 0.000239575 0.000272697 0.000307652 0.000341623 0.000349962 0.000343644);
    }
    glass2
    {
        type            nutkWallFunction;
        Cmu             0.09;
        kappa           0.41;
        E               9.8;
        value           nonuniform List<scalar> 2(0.000182234 0.000170844);
    }
    sun
    {
        type            nutkWallFunction;
        Cmu             0.09;
        kappa           0.41;
        E               9.8;
        value           nonuniform List<scalar> 
14
(
0.00012886
0.00013983
0.000142867
0.000149418
0.000155421
0.00016108
0.000166718
0.000172419
0.000177063
0.000179973
0.000180298
0.000177197
0.000169575
0.000153307
)
;
    }
    Table_master
    {
        type            nutkWallFunction;
        Cmu             0.09;
        kappa           0.41;
        E               9.8;
        value           nonuniform List<scalar> 9(9.98203e-05 8.73776e-05 7.68646e-05 6.82247e-05 6.11585e-05 5.53623e-05 5.0599e-05 4.67093e-05 4.36584e-05);
    }
    Table_slave
    {
        type            nutkWallFunction;
        Cmu             0.09;
        kappa           0.41;
        E               9.8;
        value           nonuniform List<scalar> 9(0.000112277 0.00010305 9.67088e-05 9.19975e-05 8.79908e-05 8.39858e-05 8.01624e-05 7.60989e-05 7.13162e-05);
    }
    inlet
    {
        type            calculated;
        value           uniform 0.000167705;
    }
    outlet
    {
        type            calculated;
        value           nonuniform List<scalar> 2(0.00211917 0.00217152);
    }
}


// ************************************************************************* //
