/*--------------------------------*- C++ -*----------------------------------*\
  =========                 |
  \\      /  F ield         | OpenFOAM: The Open Source CFD Toolbox
   \\    /   O peration     | Website:  https://openfoam.org
    \\  /    A nd           | Version:  6
     \\/     M anipulation  |
\*---------------------------------------------------------------------------*/
FoamFile
{
    version     2.0;
    format      ascii;
    class       volScalarField;
    location    "4600";
    object      alphat;
}
// * * * * * * * * * * * * * * * * * * * * * * * * * * * * * * * * * * * * * //

dimensions      [1 -1 -1 0 0 0 0];

internalField   nonuniform List<scalar> 
662
(
0.00117481
0.00127208
0.00129624
0.00135761
0.00141471
0.0014688
0.00152243
0.00157876
0.00163564
0.00168856
0.00173041
0.00174613
0.00171289
0.00160188
0.00130263
0.000585424
0.000686941
0.000780208
0.000812934
0.00079842
0.000744731
0.000686126
0.000634044
0.000589191
0.000550427
0.000516735
0.000487272
0.0004613
0.000437774
0.000415579
0.000393434
0.000380205
0.000349386
0.00159471
0.00338303
0.00303076
0.00346604
0.00388303
0.00431441
0.0047303
0.0050786
0.00542181
0.00583858
0.00631247
0.00677627
0.00710545
0.00711161
0.00616488
0.00158153
0.00130304
0.0010583
0.000580598
0.00138233
0.00202074
0.0025139
0.00266697
0.0019349
0.00162661
0.00141717
0.00126299
0.00114531
0.00105228
0.000974952
0.000902205
0.00082904
0.000762728
0.000706498
0.000860262
0.000458395
0.00197344
0.00470101
0.00350006
0.004425
0.00481972
0.00506785
0.00520354
0.00528129
0.00541438
0.00570406
0.00619163
0.00687021
0.0075925
0.00805534
0.00786762
0.00652507
0.00507846
0.00127699
0.000904787
0.00155218
0.00226104
0.00296894
0.00317303
0.00101052
0.00088123
0.000774137
0.000687603
0.000617867
0.000561422
0.000515498
0.000478395
0.000449527
0.000496589
0.000575415
0.00100969
0.000541657
0.00236177
0.00644351
0.003508
0.00457502
0.00500601
0.00502467
0.00483712
0.00462678
0.00456427
0.00472786
0.00520468
0.00604049
0.00702266
0.00771515
0.00796039
0.00773635
0.00678079
0.00375327
0.00148215
0.00185309
0.00254172
0.00340308
0.0041609
0.00420414
0.00114385
0.00104218
0.000971096
0.000917535
0.000872158
0.000829179
0.000788415
0.000745829
0.000696895
0.000654525
0.000648576
0.00121155
0.000622387
0.00275063
0.00840561
0.00450987
0.00419286
0.00484886
0.00494754
0.00466918
0.00424332
0.00404377
0.00411343
0.00458373
0.00552454
0.00657381
0.00724144
0.00754421
0.00758142
0.00725716
0.00605524
0.00547483
0.00550704
0.00581671
0.00617867
0.00639181
0.00626086
0.00528893
0.00477429
0.00447726
0.0042601
0.00404565
0.00376391
0.00334926
0.00283326
0.00225666
0.00170842
0.0012805
0.00120625
0.00105629
0.000835102
0.000879242
0.000953965
0.00318702
0.0101382
0.00666793
0.00442657
0.00422844
0.00441278
0.00447851
0.00416251
0.00394813
0.00396304
0.00441067
0.00537303
0.00648125
0.00706587
0.00725742
0.0072696
0.00728591
0.00724584
0.00748278
0.00783488
0.00806009
0.00807299
0.00787225
0.00748072
0.00692535
0.00645616
0.00607711
0.00573923
0.00541129
0.00507078
0.0046494
0.00411506
0.00347019
0.00276271
0.00212356
0.0015303
0.00127209
0.00112392
0.00141041
0.000990298
0.00149149
0.00472885
0.00617724
0.00539992
0.00458696
0.00425352
0.00422209
0.00418409
0.00400062
0.00389796
0.00424421
0.00523395
0.00679622
0.00720563
0.00728074
0.00732073
0.00768476
0.00829726
0.00886171
0.00915514
0.00911587
0.0087951
0.00827815
0.0076487
0.00699779
0.00643693
0.00598015
0.00559446
0.00525592
0.004958
0.00469758
0.00439869
0.0039535
0.00337646
0.00279513
0.00223374
0.00186919
0.00170552
0.00159343
0.00116869
0.00116729
0.00237672
0.00342415
0.00414139
0.00446682
0.00443854
0.0042805
0.00407702
0.00383294
0.00387748
0.004626
0.00590782
0.00731051
0.00751064
0.0075306
0.00783313
0.00855435
0.00908803
0.00935158
0.00930441
0.00893031
0.00830299
0.00752557
0.00671365
0.0059915
0.00543535
0.0050254
0.00471502
0.00447967
0.00431483
0.0042249
0.00419911
0.00411058
0.00378339
0.00347498
0.00330346
0.00335385
0.00344708
0.00418603
0.00177512
0.00031267
0.00149032
0.00238532
0.00295319
0.00321219
0.00329032
0.00350705
0.00434884
0.00576138
0.00701709
0.00773597
0.00773307
0.00798435
0.00835731
0.008674
0.00876156
0.00863056
0.00823858
0.00758075
0.00675056
0.00588512
0.00512455
0.00454908
0.00414677
0.00385954
0.00364065
0.0034646
0.00331649
0.00318493
0.00305972
0.00295415
0.00286833
0.00281227
0.00278205
0.0027222
0.00259493
0.00242168
0.00166241
0.0007531
0.000761566
0.00138456
0.00208886
0.0027367
0.00354285
0.0048111
0.00628622
0.00731355
0.0076446
0.00760217
0.00764733
0.00774108
0.00771487
0.00753668
0.00726455
0.00685203
0.00627199
0.00557787
0.00485726
0.00422767
0.0037556
0.00342962
0.00320525
0.00304352
0.00292223
0.00283146
0.00276841
0.00273504
0.00273636
0.00275702
0.00278751
0.00282001
0.00283449
0.00280371
0.00271815
0.0024273
0.00137302
0.00126336
0.00347569
0.00182617
0.00159327
0.00240398
0.00350924
0.00475377
0.00606657
0.00702227
0.0073252
0.0070499
0.00644259
0.00582746
0.00583055
0.00568499
0.00547385
0.00524106
0.00495142
0.00458343
0.00415847
0.00373145
0.00335342
0.00304772
0.00282606
0.00267424
0.00257602
0.00252059
0.00250084
0.00251013
0.00253963
0.00259626
0.00267663
0.00277455
0.00288145
0.00298242
0.00305823
0.00311689
0.00323348
0.0021878
0.00142264
0.00096776
0.00238478
0.00326767
0.00397007
0.00452263
0.0049797
0.00525939
0.00527363
0.00497011
0.00436507
0.00338727
0.00207593
0.00101397
0.000985684
0.000958103
0.000933306
0.000909052
0.000883503
0.000857109
0.000832992
0.000814836
0.000805041
0.000804307
0.000810712
0.000823403
0.000841807
0.000865713
0.000895262
0.000931034
0.000974302
0.00102466
0.00108221
0.0011471
0.00121938
0.00129852
0.00138434
0.00143367
0.00130084
0.00121678
0.00137989
0.00250186
0.00644522
0.00608144
0.00497203
0.00437342
0.00421815
0.00423878
0.0040994
0.00392434
0.00399296
0.00467576
0.00584394
0.00184614
0.00299439
0.0038155
0.0043617
0.00448186
0.00436478
0.00419138
0.00394638
0.00378815
0.00415383
0.00524247
0.00650933
0.000974189
0.00197479
0.00271174
0.00311591
0.00325927
0.0033501
0.0038304
0.00502382
0.00645332
0.00740071
0.000590671
0.00104222
0.00174304
0.00241472
0.00309435
0.00410865
0.00556827
0.00688626
0.00755239
0.00765904
0.0036238
0.00295767
0.00140333
0.00196359
0.00290585
0.00411015
0.00542152
0.00662244
0.0072464
0.00726748
0.00673959
0.00625363
0.00250335
0.00281204
0.00370077
0.00425453
0.00476644
0.00514664
0.00530515
0.00516086
0.00470606
0.00393102
0.00274886
0.00150077
0.00156077
0.00314479
0.00469279
0.00514289
0.0049211
0.0045621
0.00433936
0.00418853
0.00396276
0.00387957
0.00436892
0.00549923
0.0012334
0.00136236
0.00184025
0.00269296
0.0034012
0.00374723
0.0038083
0.0037159
0.00362374
0.00397755
0.005075
0.00643694
0.000546331
0.000856004
0.00166302
0.00233786
0.00277393
0.00310574
0.00380512
0.00515849
0.00660439
0.00748672
0.000586965
0.000926684
0.00156993
0.00240066
0.00341603
0.00477628
0.00619738
0.00717859
0.00752843
0.00733642
0.00127533
0.00327903
0.00287298
0.00298355
0.00382912
0.00480264
0.00573298
0.00645969
0.00673456
0.00647798
0.00577766
0.00495897
0.00116507
0.00105897
0.00112304
0.00116569
0.00115388
0.00109256
0.000992365
0.000864344
0.00073052
0.000608363
0.000508763
0.00047505
0.00215981
0.00418059
0.00505177
0.0050841
0.00473285
0.00442884
0.0042761
0.00407877
0.0038779
0.004031
0.00488183
0.00611969
0.00126205
0.00138401
0.00226282
0.00308869
0.00361806
0.00380471
0.0037732
0.00364855
0.0037116
0.00444533
0.0057746
0.0069603
0.000521124
0.001258
0.00202992
0.00258267
0.00293432
0.00337041
0.00441981
0.00592149
0.00713325
0.00767169
0.000659914
0.0012193
0.00196528
0.00287635
0.00404898
0.00553764
0.00675427
0.00744319
0.00745879
0.00726436
0.00354092
0.00324502
0.00278315
0.0033807
0.00430408
0.00527881
0.00613818
0.00666497
0.00666761
0.00617773
0.00533272
0.0048553
0.00103216
0.0010953
0.00114685
0.00116731
0.00112844
0.00104688
0.000930664
0.000796626
0.000667668
0.00055379
0.000480794
0.000486146
)
;

boundaryField
{
    floor
    {
        type            compressible::alphatWallFunction;
        Prt             0.85;
        value           nonuniform List<scalar> 
36
(
0.000184189
8.21502e-05
9.72388e-05
0.000110864
0.000115598
0.000113502
0.000105706
9.71197e-05
8.9414e-05
8.27158e-05
7.68763e-05
7.17594e-05
6.72506e-05
6.32476e-05
5.9597e-05
5.613e-05
5.26471e-05
5.05547e-05
4.56431e-05
4.56425e-05
6.27996e-05
7.55505e-05
8.7682e-05
0.000118804
0.000125138
0.000135769
0.000184187
0.000221863
0.000184244
0.000150428
8.21492e-05
0.000150426
8.14247e-05
0.000180681
0.000128764
0.000208533
)
;
    }
    ceiling
    {
        type            compressible::alphatWallFunction;
        Prt             0.85;
        value           nonuniform List<scalar> 
58
(
0.000146837
0.000155667
0.000162836
0.000165678
0.000160307
0.000148947
0.000132572
0.000113374
9.45307e-05
7.75159e-05
6.63822e-05
6.72058e-05
0.000144354
0.000140371
0.000136474
0.000132959
0.00012951
0.000125866
0.000122088
0.000118624
0.000116008
0.000114594
0.000114488
0.000115413
0.000117243
0.000119892
0.000123322
0.000127547
0.000132639
0.000138767
0.00014586
0.000153917
0.000162942
0.000172926
0.000183781
0.000195468
0.000202149
0.000184099
0.000172574
0.000194876
0.000178897
0.000195501
8.22557e-05
0.000137774
0.000150593
0.000159529
0.000165448
0.000163826
0.000155323
0.000141295
0.000123118
0.000103765
8.5719e-05
7.06717e-05
6.54975e-05
0.000165887
0.000192568
0.000106846
)
;
    }
    sWall
    {
        type            compressible::alphatWallFunction;
        Prt             0.85;
        value           nonuniform List<scalar> 4(0.000179922 0.000164754 0.000178282 0.00013719);
    }
    nWall
    {
        type            compressible::alphatWallFunction;
        Prt             0.85;
        value           nonuniform List<scalar> 6(0.000135544 0.000140671 0.000165564 0.000193587 0.000200308 0.000194525);
    }
    sideWalls
    {
        type            empty;
    }
    glass1
    {
        type            compressible::alphatWallFunction;
        Prt             0.85;
        value           nonuniform List<scalar> 10(0.000162205 0.000218365 0.000267755 0.000317439 0.000366402 0.000420535 0.000215703 0.000172618 0.000206742 0.000163539);
    }
    glass2
    {
        type            compressible::alphatWallFunction;
        Prt             0.85;
        value           nonuniform List<scalar> 2(0.000245661 0.000230893);
    }
    sun
    {
        type            compressible::alphatWallFunction;
        Prt             0.85;
        value           nonuniform List<scalar> 
14
(
0.000166649
0.000180015
0.000183321
0.000191686
0.000199432
0.000206737
0.000213951
0.000221496
0.000229086
0.00023612
0.000241666
0.000243744
0.000239343
0.000224581
)
;
    }
    Table_master
    {
        type            compressible::alphatWallFunction;
        Prt             0.85;
        value           nonuniform List<scalar> 9(0.000143897 0.000125566 0.000110141 9.74905e-05 8.7155e-05 7.86842e-05 7.17142e-05 6.60262e-05 6.15619e-05);
    }
    Table_slave
    {
        type            compressible::alphatWallFunction;
        Prt             0.85;
        value           nonuniform List<scalar> 9(0.000162518 0.000148345 0.000138341 0.000130746 0.000124271 0.000118101 0.000112214 0.000106025 9.88602e-05);
    }
    inlet
    {
        type            fixedValue;
        value           uniform 1.94e-05;
    }
    outlet
    {
        type            zeroGradient;
    }
}


// ************************************************************************* //
