/*--------------------------------*- C++ -*----------------------------------*\
  =========                 |
  \\      /  F ield         | OpenFOAM: The Open Source CFD Toolbox
   \\    /   O peration     | Website:  https://openfoam.org
    \\  /    A nd           | Version:  6
     \\/     M anipulation  |
\*---------------------------------------------------------------------------*/
FoamFile
{
    version     2.0;
    format      ascii;
    class       volScalarField;
    location    "4600";
    object      epsilon;
}
// * * * * * * * * * * * * * * * * * * * * * * * * * * * * * * * * * * * * * //

dimensions      [0 2 -3 0 0 0 0];

internalField   nonuniform List<scalar> 
662
(
0.000363771
0.000460491
0.000487162
0.000559642
0.000633234
0.000708644
0.000789089
0.000879887
0.00097837
0.00107627
0.00115806
0.00118966
0.00112288
0.000918453
0.000494068
4.4926e-05
7.25657e-05
0.000106306
0.000120259
0.000113941
9.2473e-05
7.23204e-05
5.70739e-05
4.58013e-05
3.73455e-05
3.09011e-05
2.59129e-05
2.19878e-05
1.87937e-05
1.60788e-05
1.3644e-05
1.23146e-05
9.5588e-06
0.000911857
0.00146089
0.000417552
0.000401736
0.000413928
0.000432219
0.000460115
0.000506079
0.000573862
0.000660194
0.000749604
0.000808151
0.00079759
0.000713731
0.000609781
0.000884021
0.000494487
0.000264991
4.38303e-05
8.7847e-05
0.000108992
0.000109575
0.000104416
0.000103828
8.06442e-05
6.05749e-05
4.58034e-05
3.51172e-05
2.73573e-05
2.16581e-05
1.74294e-05
1.42867e-05
1.22808e-05
1.14464e-05
3.27892e-05
2.15855e-05
0.00173199
0.0039984
0.000520808
0.000344951
0.000338968
0.000350324
0.00037254
0.000413562
0.00048009
0.000570542
0.000672499
0.000759729
0.000785147
0.000718341
0.000592743
0.000495645
0.000426748
0.000465536
0.000165801
0.000165454
0.000149684
0.000132618
0.000122299
0.000231018
0.00015321
0.000103868
7.27868e-05
5.28125e-05
3.96215e-05
3.06729e-05
2.45158e-05
2.03407e-05
1.57504e-05
1.38888e-05
7.04338e-05
3.56139e-05
0.00297551
0.00874071
0.000956627
0.00033377
0.000292153
0.000295748
0.00031126
0.000351619
0.000426495
0.000520281
0.000626145
0.000736826
0.000786594
0.000721918
0.000604314
0.000501571
0.000443164
0.000465638
0.000727981
0.00045913
0.000298325
0.00021582
0.000168934
0.000146914
0.000335256
0.00025362
0.000205216
0.000173122
0.000148703
0.000127796
0.000109867
9.30141e-05
7.58837e-05
4.61131e-05
2.97768e-05
0.000127412
5.40343e-05
0.00471029
0.0138949
0.00226588
0.000483049
0.000314445
0.000288849
0.00029302
0.000352763
0.000459321
0.000553321
0.000655097
0.000781077
0.000830676
0.000745857
0.000600448
0.000466949
0.000378224
0.000352196
0.00035315
0.000298753
0.000249081
0.000209169
0.000174622
0.000145066
0.000133423
0.000120642
0.000111167
0.000102973
9.45164e-05
8.51928e-05
7.56713e-05
6.64132e-05
5.77706e-05
4.67449e-05
3.67531e-05
8.16195e-05
0.00012793
0.000130672
0.000152631
0.000194947
0.00733884
0.0214216
0.00592401
0.00160288
0.000786322
0.000527072
0.000443579
0.00051762
0.000623073
0.000685555
0.000768383
0.000895897
0.000935912
0.000801707
0.000602075
0.000424494
0.000312181
0.0002716
0.00026484
0.000257172
0.000238642
0.000209935
0.000176704
0.000145202
0.000123866
0.00011365
0.000109415
0.000106347
0.000101972
9.48067e-05
8.39628e-05
7.20336e-05
6.08501e-05
5.08003e-05
4.45221e-05
5.93711e-05
9.80837e-05
0.000116421
0.000219903
0.000217987
0.0121862
0.0152758
0.0110915
0.0057766
0.00292979
0.00162998
0.00110408
0.000966677
0.000941364
0.000897412
0.000922822
0.00105316
0.00110691
0.000875089
0.000604771
0.000386965
0.00026651
0.000233208
0.000238536
0.000240097
0.000224509
0.000196358
0.000164904
0.000137931
0.00012192
0.00011767
0.00011977
0.000123685
0.000127182
0.000128306
0.000123782
0.000111477
9.85478e-05
8.74742e-05
8.29652e-05
9.25178e-05
0.000125358
0.000179621
0.000346127
0.000358194
0.0059757
0.00864738
0.00752979
0.00628813
0.00493478
0.00356136
0.00251945
0.0018424
0.00139616
0.00119086
0.00124767
0.00139948
0.00125921
0.000900101
0.00055418
0.000318737
0.000221292
0.000207186
0.000212799
0.00020893
0.000190592
0.000165569
0.000142514
0.000127029
0.000121634
0.000125199
0.000134599
0.000147995
0.000165104
0.000186044
0.000210367
0.000233162
0.000248519
0.000277474
0.000334156
0.000478514
0.000783339
0.00131884
0.0045374
0.00125777
0.000861431
0.0029063
0.00309696
0.00275316
0.00224981
0.001798
0.00154872
0.00161704
0.00184075
0.00183415
0.00124407
0.000746561
0.00037829
0.000234675
0.000188305
0.000178694
0.000175035
0.000165156
0.000149197
0.000132656
0.000120604
0.000115634
0.000118005
0.000126621
0.000140568
0.000160141
0.000186835
0.000223142
0.000272541
0.000339266
0.000430472
0.000559374
0.000748183
0.00100393
0.00130377
0.00159349
0.0018362
0.00103507
0.00142868
0.00125951
0.00174609
0.00199747
0.00207482
0.00218687
0.00244244
0.00262165
0.00240772
0.00177938
0.000781669
0.000438768
0.000263914
0.000195009
0.000169956
0.000160069
0.000152205
0.000142109
0.000130776
0.000120776
0.000114455
0.000112853
0.000115788
0.000122804
0.000133823
0.000149438
0.000171027
0.00020097
0.000243162
0.000303466
0.000388555
0.000506696
0.000665543
0.000859992
0.00106314
0.00123142
0.0011759
0.000583137
0.00705483
0.00771148
0.00185106
0.00216266
0.00270573
0.00305318
0.00329666
0.00334123
0.00300141
0.00235594
0.00153408
0.000794662
0.000310469
0.000241662
0.000207376
0.000193022
0.000185793
0.000179314
0.00017124
0.000161679
0.000151881
0.000143078
0.000136319
0.000132574
0.000132151
0.000135348
0.000142738
0.000155251
0.000174271
0.000201835
0.000240984
0.000295726
0.000371494
0.00047433
0.000607606
0.000765832
0.000942216
0.00126449
0.000649564
0.00064855
0.00317981
0.00365682
0.00345054
0.00425873
0.00449274
0.00407755
0.00329838
0.00233591
0.00145225
0.000839589
0.000477196
0.000327557
0.000234479
0.000215426
0.000197863
0.000182908
0.000169026
0.000155179
0.000141689
0.000130067
0.000121749
0.000117412
0.000117092
0.000119911
0.00012563
0.000134243
0.000146006
0.000161471
0.000181608
0.00020812
0.000242087
0.000285212
0.000339654
0.000407997
0.00049272
0.000597053
0.000663259
0.000495506
0.000405777
0.000592442
0.0127524
0.0161495
0.0082902
0.00411773
0.00213741
0.00129234
0.00099053
0.000959389
0.000920936
0.000895751
0.000981319
0.00111297
0.00933204
0.00833026
0.00687003
0.00564386
0.00422158
0.00298835
0.00215098
0.00159115
0.00126018
0.00119055
0.00133113
0.0014149
0.00243602
0.00310179
0.00296335
0.00250534
0.00200831
0.00163798
0.00154398
0.00173372
0.00188494
0.00169284
0.000960093
0.00153024
0.0019015
0.00204695
0.00211189
0.00229908
0.00256685
0.00257315
0.00213185
0.00143563
0.0210928
0.00430917
0.00186486
0.00250074
0.00287563
0.00318657
0.0033584
0.00321967
0.00270546
0.00194473
0.00113934
0.000546637
0.0087904
0.00344646
0.00383258
0.00448862
0.00434072
0.00372275
0.00282566
0.00186651
0.00111087
0.000629303
0.000380263
0.000294484
0.0138495
0.0112489
0.00956242
0.00709997
0.00473292
0.00297622
0.00196925
0.00147409
0.00120014
0.0010453
0.00106268
0.00120535
0.00705477
0.00930706
0.00763219
0.00546029
0.0043477
0.00336913
0.00252832
0.00189945
0.00147855
0.00135341
0.00150048
0.00162327
0.00172811
0.00158239
0.00212029
0.00220233
0.00202135
0.00181297
0.00181815
0.00207485
0.0022126
0.0019285
0.000666324
0.00145631
0.00194782
0.00227085
0.00257262
0.00292113
0.0030871
0.0028099
0.00217956
0.00133057
0.00725859
0.0057246
0.00258489
0.00307874
0.00359544
0.00367795
0.00348107
0.00297913
0.00224409
0.00152986
0.000886703
0.000447161
0.00553679
0.00415813
0.00496339
0.00555923
0.0054158
0.00462188
0.00348087
0.00230994
0.00139879
0.00080932
0.00047377
0.000385805
0.0118667
0.0109716
0.00833851
0.00587728
0.00375233
0.00238758
0.00168028
0.00132099
0.00110575
0.00102985
0.00113109
0.0012507
0.0074568
0.00973603
0.00627712
0.00486942
0.00384798
0.00292432
0.00218902
0.00165823
0.00137431
0.00140614
0.00158831
0.00157194
0.00118486
0.0019134
0.00220904
0.00212947
0.00190653
0.00177346
0.00193309
0.00218548
0.00212545
0.00164987
0.00085698
0.00174433
0.00211747
0.00241865
0.00274401
0.00306616
0.00299617
0.00253325
0.00176773
0.000983986
0.0171047
0.00387097
0.00270212
0.00342755
0.00366618
0.00361301
0.00327005
0.00262407
0.00187687
0.00119328
0.000629762
0.000347821
0.00384957
0.00460251
0.00528894
0.0055933
0.00507889
0.0040765
0.00287767
0.0018115
0.00106901
0.000610803
0.000399932
0.00041349
)
;

boundaryField
{
    floor
    {
        Cmu             0.09;
        kappa           0.41;
        E               9.8;
        type            epsilonWallFunction;
        value           nonuniform List<scalar> 
36
(
0.000494068
4.4926e-05
7.25657e-05
0.000106306
0.000120259
0.000113941
9.2473e-05
7.23204e-05
5.70739e-05
4.58013e-05
3.73455e-05
3.09011e-05
2.59129e-05
2.19878e-05
1.87937e-05
1.60788e-05
1.3644e-05
1.23146e-05
9.5588e-06
9.5588e-06
2.15855e-05
3.56139e-05
5.40343e-05
0.000130672
0.000152631
0.000194947
0.000494068
0.000884021
0.000494487
0.000264991
4.4926e-05
0.000264991
4.38303e-05
0.000465536
0.000165801
0.000727981
)
;
    }
    ceiling
    {
        Cmu             0.09;
        kappa           0.41;
        E               9.8;
        type            epsilonWallFunction;
        value           nonuniform List<scalar> 
58
(
0.00384957
0.00460251
0.00528894
0.0055933
0.00507889
0.0040765
0.00287767
0.0018115
0.00106901
0.000610803
0.000399932
0.00041349
0.000234479
0.000215426
0.000197863
0.000182908
0.000169026
0.000155179
0.000141689
0.000130067
0.000121749
0.000117412
0.000117092
0.000119911
0.00012563
0.000134243
0.000146006
0.000161471
0.000181608
0.00020812
0.000242087
0.000285212
0.000339654
0.000407997
0.00049272
0.000597053
0.000663259
0.000495506
0.000405777
0.000592442
0.0074568
0.00973603
0.000666324
0.00317981
0.00415813
0.00496339
0.00555923
0.0054158
0.00462188
0.00348087
0.00230994
0.00139879
0.00080932
0.00047377
0.000385805
0.0059757
0.00930706
0.00142868
)
;
    }
    sWall
    {
        Cmu             0.09;
        kappa           0.41;
        E               9.8;
        type            epsilonWallFunction;
        value           nonuniform List<scalar> 4(0.00725859 0.00553679 0.00705483 0.00317981);
    }
    nWall
    {
        Cmu             0.09;
        kappa           0.41;
        E               9.8;
        type            epsilonWallFunction;
        value           nonuniform List<scalar> 6(0.000194947 0.000217987 0.000358194 0.000583137 0.00064855 0.000592442);
    }
    sideWalls
    {
        type            empty;
    }
    glass1
    {
        Cmu             0.09;
        kappa           0.41;
        E               9.8;
        type            epsilonWallFunction;
        value           nonuniform List<scalar> 10(0.000363771 0.000911857 0.00173199 0.00297551 0.00471029 0.00733884 0.0138495 0.00705477 0.0121862 0.0059757);
    }
    glass2
    {
        Cmu             0.09;
        kappa           0.41;
        E               9.8;
        type            epsilonWallFunction;
        value           nonuniform List<scalar> 2(0.00125777 0.00103507);
    }
    sun
    {
        Cmu             0.09;
        kappa           0.41;
        E               9.8;
        type            epsilonWallFunction;
        value           nonuniform List<scalar> 
14
(
0.000363771
0.000460491
0.000487162
0.000559642
0.000633234
0.000708644
0.000789089
0.000879887
0.00097837
0.00107627
0.00115806
0.00118966
0.00112288
0.000918453
)
;
    }
    Table_master
    {
        Cmu             0.09;
        kappa           0.41;
        E               9.8;
        type            epsilonWallFunction;
        value           nonuniform List<scalar> 9(0.000231018 0.00015321 0.000103868 7.27868e-05 5.28125e-05 3.96215e-05 3.06729e-05 2.45158e-05 2.03407e-05);
    }
    Table_slave
    {
        Cmu             0.09;
        kappa           0.41;
        E               9.8;
        type            epsilonWallFunction;
        value           nonuniform List<scalar> 9(0.000335256 0.00025362 0.000205216 0.000173122 0.000148703 0.000127796 0.000109867 9.30141e-05 7.58837e-05);
    }
    inlet
    {
        type            turbulentMixingLengthDissipationRateInlet;
        mixingLength    0.01;
        phi             phi;
        k               k;
        value           uniform 0.000471671;
    }
    outlet
    {
        type            zeroGradient;
    }
}


// ************************************************************************* //
