/*--------------------------------*- C++ -*----------------------------------*\
  =========                 |
  \\      /  F ield         | OpenFOAM: The Open Source CFD Toolbox
   \\    /   O peration     | Website:  https://openfoam.org
    \\  /    A nd           | Version:  6
     \\/     M anipulation  |
\*---------------------------------------------------------------------------*/
FoamFile
{
    version     2.0;
    format      ascii;
    class       volScalarField;
    location    "4600";
    object      nut;
}
// * * * * * * * * * * * * * * * * * * * * * * * * * * * * * * * * * * * * * //

dimensions      [0 2 -1 0 0 0 0];

internalField   nonuniform List<scalar> 
662
(
0.00100923
0.00109175
0.00111243
0.00116507
0.00121405
0.00126045
0.00130644
0.00135474
0.00140351
0.00144885
0.00148465
0.00149804
0.00146946
0.00137425
0.00111766
0.000502591
0.000589693
0.000669735
0.00069784
0.000685399
0.000639325
0.000589029
0.00054433
0.000505835
0.000472566
0.00044365
0.000418364
0.000396074
0.000375883
0.000356835
0.000337828
0.00032648
0.000300043
0.00137095
0.00290405
0.00260148
0.00297517
0.00333317
0.00370351
0.0040605
0.00435941
0.00465379
0.00501098
0.00541678
0.00581371
0.00609548
0.00610074
0.00528887
0.00135686
0.00111798
0.00090808
0.000498472
0.00118657
0.00173453
0.00215789
0.00228937
0.00166097
0.00139635
0.00121657
0.00108423
0.000983213
0.000903359
0.000836988
0.000774546
0.000711746
0.00065483
0.000606575
0.000738628
0.000393642
0.00169784
0.00403642
0.00300491
0.00379929
0.00413856
0.00435196
0.00446873
0.00453559
0.00464965
0.00489752
0.00531438
0.00589472
0.00651322
0.00691023
0.00674962
0.00559813
0.00435719
0.00109572
0.000776686
0.00133231
0.00194077
0.00254853
0.0027239
0.000867492
0.000756506
0.000664575
0.000590292
0.00053043
0.000481977
0.000442555
0.000410706
0.000385926
0.00042634
0.000494028
0.000866921
0.000465144
0.00203345
0.00553423
0.00301229
0.00392895
0.00429976
0.00431651
0.00415606
0.00397574
0.00392196
0.00406147
0.00446853
0.00518314
0.00602423
0.00661832
0.00682933
0.00663764
0.00581801
0.0032205
0.00127181
0.00159022
0.0021814
0.00292103
0.00357197
0.0036095
0.000982146
0.000894908
0.000833913
0.000787955
0.000749014
0.000712124
0.000677131
0.000640569
0.000598547
0.000562104
0.000556943
0.00104033
0.000534487
0.00236989
0.00722232
0.00387348
0.00360136
0.00416553
0.00425121
0.00401302
0.00364785
0.00347658
0.0035353
0.00393623
0.00474047
0.00563901
0.00621189
0.00647257
0.00650529
0.00622744
0.00519624
0.00469847
0.00472659
0.00499303
0.00530451
0.00548829
0.00537653
0.00454237
0.00410071
0.00384583
0.00365948
0.00347538
0.00323341
0.00287721
0.0024339
0.00193852
0.00146745
0.00109976
0.00103589
0.00090713
0.000717421
0.000755545
0.000819758
0.0027474
0.00871741
0.00573024
0.00380346
0.00363337
0.00379231
0.00384966
0.00357917
0.00339532
0.00340665
0.00378777
0.00461015
0.00555912
0.00606125
0.00622704
0.00623871
0.0062534
0.0062194
0.00642334
0.0067264
0.00692073
0.00693282
0.00676137
0.00642586
0.00594938
0.00554672
0.00522136
0.00493125
0.00464959
0.00435703
0.00399489
0.00353563
0.00298141
0.00237339
0.00182411
0.00131435
0.00109253
0.000965423
0.00121164
0.000850858
0.0012911
0.00407599
0.00531747
0.00464511
0.00394435
0.00365715
0.0036304
0.00359862
0.00344137
0.00335147
0.00364495
0.00448998
0.00582816
0.00618134
0.00624815
0.00628423
0.00659778
0.00712432
0.00760974
0.00786263
0.00782992
0.00755538
0.00711214
0.006572
0.00601318
0.00553155
0.00513921
0.00480786
0.00451696
0.00426089
0.00403695
0.00377989
0.00339711
0.00290103
0.00240131
0.0019188
0.00160554
0.00146501
0.0013688
0.00100405
0.00101813
0.00205856
0.00295858
0.0035733
0.00385002
0.00382289
0.00368532
0.00350935
0.00329734
0.00333139
0.00396859
0.00506427
0.00626901
0.00644447
0.00646486
0.00672672
0.00734725
0.00780631
0.00803341
0.0079937
0.00767312
0.00713484
0.00646737
0.00577001
0.00514962
0.00467176
0.00431948
0.00405272
0.0038504
0.00370865
0.00363124
0.0036089
0.00353256
0.00325114
0.00298589
0.00283828
0.00288145
0.00296163
0.00359679
0.00152609
0.000260732
0.00126719
0.00204246
0.00253516
0.00275948
0.00282619
0.00300914
0.00372643
0.00493394
0.00601188
0.00663672
0.00663915
0.00685814
0.00717994
0.00745278
0.00752856
0.00741655
0.00708026
0.00651543
0.00580232
0.00505873
0.00440513
0.00391054
0.00356474
0.00331782
0.00312964
0.00297827
0.00285091
0.00273778
0.00263013
0.0025394
0.00246567
0.00241759
0.00239181
0.00234065
0.0022315
0.00208275
0.00143011
0.000631905
0.000638485
0.00116973
0.00177515
0.00233282
0.00302325
0.00410802
0.00537333
0.00626095
0.00655442
0.00652854
0.00657015
0.00665214
0.00663034
0.00647764
0.00624409
0.00588985
0.00539156
0.0047951
0.00417578
0.00363462
0.00322882
0.00294859
0.00275569
0.00261665
0.00251237
0.00243432
0.00238012
0.00235144
0.00235258
0.00237038
0.00239664
0.0024247
0.00243732
0.00241105
0.00233769
0.00208773
0.00118115
0.00107606
0.00293976
0.00153332
0.00133766
0.00202927
0.00297717
0.00404566
0.00517444
0.006002
0.0062731
0.00604766
0.00553275
0.00500809
0.00501155
0.00488689
0.00470566
0.00450572
0.00425688
0.00394064
0.00357538
0.0032083
0.00288332
0.0026205
0.00242993
0.00229939
0.00221494
0.00216728
0.0021503
0.00215829
0.00218366
0.00223236
0.00230147
0.00238569
0.00247766
0.00256455
0.00262986
0.00268045
0.00278092
0.00188177
0.00122376
0.000825036
0.00202527
0.00277027
0.00336616
0.00384435
0.00424448
0.00449352
0.00451518
0.00426266
0.00374822
0.00291073
0.00178454
0.000871807
0.000847524
0.000823836
0.000802534
0.000781695
0.000759738
0.000737051
0.00071632
0.000700711
0.000692289
0.000691658
0.000697164
0.000708075
0.000723899
0.000744453
0.000769861
0.000800619
0.000837822
0.000881124
0.000930614
0.000986414
0.00104857
0.00111664
0.00119047
0.00123294
0.00111874
0.00104667
0.00118739
0.00215825
0.00555163
0.00523288
0.00427608
0.00376032
0.00362674
0.0036451
0.00352622
0.00337528
0.00343133
0.00401308
0.00501187
0.00160325
0.0025897
0.00329424
0.00376124
0.00386142
0.00375847
0.00360823
0.00339618
0.00325698
0.00356604
0.00449513
0.00557985
0.000822951
0.00168643
0.00232571
0.00267619
0.00279993
0.00287629
0.00328426
0.00430298
0.00552712
0.00634335
0.00049379
0.000877106
0.00147748
0.00205585
0.00263958
0.00350704
0.00475676
0.00589051
0.00647055
0.00657087
0.00307915
0.00249091
0.00117616
0.00165285
0.00245941
0.00349304
0.00461934
0.00565446
0.00619966
0.0062295
0.00578506
0.00537229
0.00212842
0.00238572
0.00313647
0.00361145
0.0040573
0.00439214
0.00453754
0.00442272
0.00403887
0.00337692
0.00236265
0.00129024
0.00134736
0.00271488
0.00404621
0.00443023
0.0042363
0.00392561
0.00373342
0.00360389
0.00340927
0.00333496
0.00375049
0.00471592
0.00107605
0.00118017
0.00159113
0.0023244
0.00293225
0.00322805
0.00327898
0.00319788
0.00311515
0.00341379
0.00435003
0.00551583
0.000458146
0.000720377
0.00141235
0.00199587
0.00237341
0.00265838
0.00325586
0.00441279
0.00565281
0.00641534
0.000490043
0.000776643
0.00132409
0.00203583
0.00290642
0.00407095
0.00529034
0.00613931
0.00645052
0.00629548
0.00108632
0.00277733
0.0024231
0.00251603
0.00324208
0.00408215
0.00488685
0.00551943
0.00576649
0.00555591
0.00496113
0.00426098
0.000992565
0.000902205
0.000957045
0.000993904
0.000985281
0.000934571
0.000850293
0.000741662
0.000627468
0.000522856
0.000437387
0.000408446
0.00186632
0.00360663
0.00435358
0.00437796
0.00407323
0.00381053
0.00367906
0.00350948
0.00333523
0.00346284
0.00418823
0.00524704
0.00109612
0.00119803
0.00195464
0.00266424
0.00311787
0.00327664
0.00324808
0.00313849
0.00318819
0.0038124
0.00494832
0.00596551
0.000436317
0.00106398
0.00172927
0.00220794
0.0025116
0.00288458
0.00378106
0.00506638
0.00610873
0.00657781
0.000551822
0.00102501
0.0016625
0.00244386
0.00344839
0.00472331
0.00577094
0.00637173
0.00639604
0.00623679
0.0030069
0.00274194
0.00234492
0.00285632
0.00365167
0.00449372
0.00523864
0.00570112
0.00571421
0.00530187
0.00458089
0.00417256
0.000879313
0.000933264
0.000977528
0.00099593
0.000964411
0.000896263
0.000798031
0.000683942
0.000573679
0.00047604
0.000413371
0.000417991
)
;

boundaryField
{
    floor
    {
        type            nutkWallFunction;
        Cmu             0.09;
        kappa           0.41;
        E               9.8;
        value           nonuniform List<scalar> 
36
(
0.000134466
6.00495e-05
7.10613e-05
8.10054e-05
8.44623e-05
8.2934e-05
7.72451e-05
7.09779e-05
6.53532e-05
6.04635e-05
5.62004e-05
5.24646e-05
4.91725e-05
4.62496e-05
4.35837e-05
4.10518e-05
3.85079e-05
3.69801e-05
3.33934e-05
3.33933e-05
4.59287e-05
5.52436e-05
6.41064e-05
8.68607e-05
9.1509e-05
9.92767e-05
0.000134466
0.000161936
0.000134503
0.000109843
6.00495e-05
0.000109843
5.9523e-05
0.000131915
9.40742e-05
0.000152237
)
;
    }
    ceiling
    {
        type            nutkWallFunction;
        Cmu             0.09;
        kappa           0.41;
        E               9.8;
        value           nonuniform List<scalar> 
58
(
0.000106404
0.000112818
0.000118048
0.000120218
0.000116508
0.000108432
9.6656e-05
8.27567e-05
6.90541e-05
5.66487e-05
4.85213e-05
4.91252e-05
0.000105519
0.000102612
9.97663e-05
9.71993e-05
9.46803e-05
9.20176e-05
8.92569e-05
8.67254e-05
8.48136e-05
8.378e-05
8.37026e-05
8.43787e-05
8.57166e-05
8.76524e-05
9.01595e-05
9.32472e-05
9.6969e-05
0.000101449
0.000106633
0.000112522
0.000119119
0.000126418
0.000134354
0.0001429
0.000147789
0.000134599
0.000126196
0.000142549
0.000132007
0.000143807
5.85554e-05
9.99061e-05
0.000109131
0.000115631
0.000119977
0.000118967
0.000112981
0.000102941
8.98209e-05
7.57751e-05
6.26325e-05
5.16531e-05
4.78761e-05
0.000122893
0.000141749
7.63693e-05
)
;
    }
    sWall
    {
        type            nutkWallFunction;
        Cmu             0.09;
        kappa           0.41;
        E               9.8;
        value           nonuniform List<scalar> 4(0.000130802 0.000119829 0.000129606 9.99092e-05);
    }
    nWall
    {
        type            nutkWallFunction;
        Cmu             0.09;
        kappa           0.41;
        E               9.8;
        value           nonuniform List<scalar> 6(9.92776e-05 0.000103014 0.000121199 0.000141836 0.000146746 0.000142559);
    }
    sideWalls
    {
        type            empty;
    }
    glass1
    {
        type            nutkWallFunction;
        Cmu             0.09;
        kappa           0.41;
        E               9.8;
        value           nonuniform List<scalar> 10(0.000121888 0.000163747 0.000200497 0.000237424 0.000273785 0.000313938 0.000161026 0.000129738 0.000154608 0.000122938);
    }
    glass2
    {
        type            nutkWallFunction;
        Cmu             0.09;
        kappa           0.41;
        E               9.8;
        value           nonuniform List<scalar> 2(0.000181142 0.000170328);
    }
    sun
    {
        type            nutkWallFunction;
        Cmu             0.09;
        kappa           0.41;
        E               9.8;
        value           nonuniform List<scalar> 
14
(
0.000121804
0.000131453
0.000133859
0.00013996
0.000145609
0.000150936
0.000156196
0.000161697
0.000167229
0.000172352
0.000176386
0.00017789
0.000174675
0.000163911
)
;
    }
    Table_master
    {
        type            nutkWallFunction;
        Cmu             0.09;
        kappa           0.41;
        E               9.8;
        value           nonuniform List<scalar> 9(0.000105001 9.16259e-05 8.0371e-05 7.11403e-05 6.35988e-05 5.7418e-05 5.23322e-05 4.81819e-05 4.49246e-05);
    }
    Table_slave
    {
        type            nutkWallFunction;
        Cmu             0.09;
        kappa           0.41;
        E               9.8;
        value           nonuniform List<scalar> 9(0.000118611 0.000108274 0.000100977 9.5438e-05 9.07149e-05 8.62137e-05 8.19181e-05 7.74014e-05 7.21716e-05);
    }
    inlet
    {
        type            calculated;
        value           uniform 0.000167705;
    }
    outlet
    {
        type            calculated;
        value           nonuniform List<scalar> 4(0.00307915 0.00249091 0.00108632 0.00293976);
    }
}


// ************************************************************************* //
