/*--------------------------------*- C++ -*----------------------------------*\
  =========                 |
  \\      /  F ield         | OpenFOAM: The Open Source CFD Toolbox
   \\    /   O peration     | Website:  https://openfoam.org
    \\  /    A nd           | Version:  6
     \\/     M anipulation  |
\*---------------------------------------------------------------------------*/
FoamFile
{
    version     2.0;
    format      ascii;
    class       volScalarField;
    location    "4600";
    object      nut;
}
// * * * * * * * * * * * * * * * * * * * * * * * * * * * * * * * * * * * * * //

dimensions      [0 2 -1 0 0 0 0];

internalField   nonuniform List<scalar> 
778
(
0.000894306
0.000953038
0.000949542
0.000990737
0.0010285
0.0010628
0.00109474
0.00112554
0.00115656
0.00118953
0.00122098
0.00125085
0.00128028
0.00131191
0.00134491
0.000632375
0.000905406
0.000912802
0.000890777
0.000853864
0.000804489
0.000755252
0.000709887
0.000668998
0.000632353
0.000599711
0.000570395
0.00054369
0.000518762
0.000494499
0.000469126
0.000448045
0.000405559
0.00131078
0.00258104
0.00226499
0.00261427
0.00286765
0.00313628
0.00340426
0.00365128
0.0038502
0.00396612
0.0040343
0.00400636
0.00380658
0.00331154
0.00241849
0.0014725
0.00140391
0.00134381
0.0011308
0.00192647
0.00267052
0.00311024
0.00313102
0.00247085
0.00211317
0.00186534
0.00167721
0.0015275
0.00139976
0.00128688
0.00118188
0.00107917
0.000986997
0.000907527
0.00102196
0.000514116
0.00166404
0.00360425
0.00267219
0.00382227
0.00427086
0.00465045
0.00499523
0.00529875
0.00555601
0.00575787
0.00595336
0.00615901
0.00634786
0.00645997
0.00638478
0.00584523
0.00427449
0.0016482
0.00142678
0.00305219
0.00425938
0.00483077
0.00439344
0.00115946
0.00100829
0.000891652
0.000800365
0.000727694
0.00066902
0.000621155
0.000582222
0.00055187
0.000606716
0.000713626
0.00112945
0.000584804
0.00200528
0.0048582
0.00255721
0.00429819
0.00496252
0.00531799
0.0055794
0.00577287
0.00591738
0.00603467
0.00620119
0.00648236
0.00689237
0.00740758
0.00792499
0.00817897
0.00767841
0.00572545
0.00164153
0.00380365
0.0056561
0.00659664
0.00682875
0.00582979
0.00132012
0.00120078
0.00110844
0.00103165
0.000966195
0.000907393
0.000851942
0.000796867
0.000737391
0.000688941
0.000713995
0.00122218
0.000643854
0.00234202
0.0064328
0.00258015
0.00408638
0.00510797
0.00541127
0.00552154
0.00552608
0.00547153
0.00542332
0.00549321
0.00576645
0.00626749
0.00697653
0.00779841
0.0085551
0.00903499
0.00902896
0.00810339
0.00824544
0.00843363
0.00845941
0.00828722
0.00775702
0.00617335
0.00533289
0.00475727
0.00428934
0.00383059
0.00338628
0.00295157
0.00251731
0.00207104
0.00159098
0.00121433
0.00121201
0.000959097
0.00076736
0.00100745
0.000966483
0.00267366
0.00819594
0.00303773
0.00344626
0.00489459
0.00523123
0.00520474
0.00501785
0.00475048
0.00452992
0.00452522
0.00481146
0.00538238
0.00620448
0.00716635
0.00812664
0.00894451
0.00946691
0.00956183
0.00946535
0.00929662
0.00905777
0.00875137
0.008362
0.00779397
0.00724684
0.00675012
0.0062697
0.00575123
0.00519766
0.00460634
0.0039721
0.00329091
0.00256826
0.00191463
0.00143771
0.00111582
0.0012493
0.00216551
0.0011572
0.0030122
0.00982743
0.00404838
0.00282354
0.00439826
0.00494862
0.00488802
0.00458536
0.00414606
0.00375935
0.00374818
0.00410934
0.00476264
0.0056812
0.00672658
0.00776104
0.00865143
0.00928928
0.00958262
0.00955941
0.00934871
0.00903002
0.00866551
0.00830219
0.00795099
0.00762881
0.00732625
0.00700317
0.00661323
0.00614394
0.00558818
0.00494317
0.00421149
0.00341234
0.00263235
0.00190507
0.00140295
0.00125235
0.0021938
0.00136207
0.00330354
0.0110644
0.00552074
0.0026887
0.00348442
0.00438716
0.00451333
0.00426459
0.0037454
0.00321913
0.00333848
0.00381596
0.00454609
0.00549248
0.00657764
0.00766048
0.00858443
0.00922669
0.00951851
0.00948026
0.00920854
0.00880792
0.00837725
0.00799552
0.00770133
0.00749118
0.00732739
0.00714937
0.0069019
0.00655554
0.00609642
0.00552165
0.00483698
0.0040638
0.0032622
0.0024532
0.00172489
0.00113952
0.00314556
0.00177527
0.00339334
0.0104838
0.00683693
0.00347717
0.00236281
0.00289558
0.00338813
0.00342979
0.00302869
0.0029444
0.00325048
0.00381166
0.00460034
0.00560303
0.00673966
0.00785565
0.0087766
0.00936977
0.00957849
0.0094355
0.00904185
0.00852541
0.00801323
0.00760479
0.00734557
0.00721822
0.00716047
0.00709202
0.00694987
0.00669988
0.00632833
0.00583367
0.00522271
0.00451359
0.00373841
0.00287127
0.00172074
0.00137879
0.00474371
0.0020221
0.00332468
0.00845831
0.0070664
0.00477596
0.00315318
0.00244152
0.0023126
0.00242135
0.00262521
0.00294973
0.00340922
0.0040401
0.00489668
0.00597655
0.00717423
0.00830583
0.0091791
0.00966098
0.00971216
0.00938949
0.00882048
0.00816549
0.00758121
0.00718121
0.00699791
0.0069762
0.00701558
0.00701465
0.00692252
0.0067199
0.00640007
0.00596256
0.00541188
0.0047543
0.00395793
0.0027846
0.00135364
0.00233432
0.00489125
0.00206298
0.00311442
0.00723129
0.00683525
0.0054684
0.00420709
0.00338661
0.00298125
0.00289002
0.0030586
0.00336811
0.00381661
0.0044812
0.00542559
0.0066082
0.00786616
0.00897395
0.00972738
0.0100091
0.00981343
0.00923824
0.008456
0.00767293
0.00707879
0.00678087
0.00674606
0.00684296
0.00694099
0.00694258
0.00684536
0.00664869
0.00634812
0.00593934
0.00541914
0.00476555
0.00379657
0.00216377
0.00147129
0.00292989
0.00470546
0.00204408
0.00283607
0.00652087
0.00659524
0.00579075
0.00492479
0.00427358
0.00389061
0.00375402
0.00378914
0.00397575
0.00438639
0.00512719
0.00621746
0.00752623
0.00881073
0.00980825
0.0103245
0.0102843
0.00974051
0.00885283
0.00786221
0.00703587
0.00656957
0.0064744
0.00655358
0.00668143
0.00676727
0.00674359
0.00663122
0.0064322
0.00613876
0.0057397
0.00521903
0.00450424
0.00313383
0.00153658
0.00189953
0.00321625
0.00430975
0.00197914
0.0025864
0.00583275
0.006298
0.00591737
0.00536136
0.00489474
0.00458479
0.00443371
0.00438872
0.00454705
0.00506704
0.00603377
0.00735199
0.00876822
0.00996998
0.0106947
0.0108023
0.0102962
0.00931845
0.0081168
0.00703088
0.00633604
0.00602849
0.00598365
0.0060635
0.00617857
0.00625878
0.00624113
0.00613237
0.0059328
0.00563218
0.00521616
0.00466122
0.00384967
0.00244922
0.00150414
0.00214386
0.00335838
0.00417946
0.00192167
0.00259428
0.00578855
0.00643463
0.00598934
0.00553929
0.00517098
0.00490558
0.00473316
0.00472477
0.00510893
0.00602604
0.00739531
0.0089407
0.0103087
0.0111862
0.0113862
0.0108837
0.00979161
0.008387
0.00703013
0.00604895
0.00546769
0.00518171
0.00509555
0.00513268
0.00522602
0.0053093
0.00530774
0.00519717
0.00497423
0.00462838
0.00415966
0.0035865
0.00291177
0.002099
0.00160116
0.00220624
0.00348017
0.0046717
0.00198054
0.00234166
0.00243525
0.00359196
0.00421904
0.00441224
0.0044144
0.00437069
0.00445024
0.00498733
0.00613141
0.00773764
0.00946903
0.0109509
0.0118722
0.0120489
0.0114424
0.0101971
0.0085453
0.00696929
0.00573863
0.00490546
0.00441003
0.00415945
0.00405531
0.00403346
0.00405479
0.00407748
0.00403553
0.00387572
0.00359333
0.00320037
0.00275551
0.00235167
0.00205767
0.00187884
0.00185639
0.0023949
0.00384397
0.00468818
0.00207587
0.000807915
0.00146602
0.00226235
0.00290277
0.00364357
0.00490034
0.00674593
0.00878946
0.0106452
0.01203
0.0127537
0.0126942
0.0118551
0.0103212
0.00849195
0.0067546
0.005373
0.00443366
0.00389805
0.00361339
0.00344818
0.0033366
0.00325236
0.00318191
0.00310698
0.00299383
0.00280592
0.00255198
0.00228097
0.00207027
0.00197514
0.00200023
0.00213088
0.00239771
0.0029855
0.00454524
0.00496772
0.00210346
0.00149715
0.00207739
0.00303303
0.00474129
0.0070617
0.00938544
0.0111889
0.0124879
0.0132701
0.0134861
0.0130429
0.0118472
0.0100839
0.00809687
0.00627878
0.00490738
0.00408066
0.00365373
0.0034237
0.00327483
0.00316431
0.00307878
0.00301164
0.00295403
0.00289074
0.00280039
0.00267372
0.00253149
0.0024147
0.00237004
0.00242264
0.00256765
0.002795
0.00313021
0.0036771
0.00484345
0.00538521
0.00209739
0.0027576
0.00666417
0.00612142
0.00547712
0.00697462
0.00931789
0.0113007
0.0126403
0.0133446
0.0135178
0.0132455
0.0124958
0.011235
0.00952699
0.00762115
0.00589303
0.0046809
0.00401651
0.00367021
0.00345665
0.00330053
0.00318383
0.00310683
0.0030705
0.00306955
0.00309022
0.00311087
0.00310728
0.00307992
0.00305475
0.0030534
0.0030946
0.00318812
0.00332881
0.0034998
0.0036846
0.00387769
0.00408151
0.00414306
0.0020048
0.00263915
0.00509931
0.00658505
0.008408
0.0093428
0.0103169
0.0108906
0.0110355
0.0108272
0.0103207
0.00954001
0.00850392
0.00727796
0.00602365
0.00497275
0.0042563
0.00379398
0.00349271
0.00327168
0.00309776
0.00296754
0.00288869
0.00286901
0.00291029
0.00300465
0.00313251
0.00326265
0.00335691
0.00341266
0.00346329
0.0035304
0.00362621
0.00375535
0.00391653
0.00410585
0.00431875
0.00454779
0.00479966
0.00466304
0.00200552
0.00247401
0.00211936
0.00210867
0.00216964
0.00221994
0.00215277
0.00202234
0.00186991
0.00171744
0.00157386
0.00144202
0.00132422
0.0012248
0.00114928
0.00110012
0.00107429
0.00106699
0.0010679
0.00107511
0.00108867
0.00110871
0.00113448
0.00116435
0.00119625
0.00122832
0.00125941
0.00128932
0.00131887
0.00134868
0.00138017
0.00141558
0.00145662
0.00150427
0.00155868
0.00161876
0.00168174
0.0017458
0.00182559
0.00195527
0.00195024
)
;

boundaryField
{
    floor
    {
        type            nutkWallFunction;
        Cmu             0.09;
        kappa           0.41;
        E               9.8;
        value           nonuniform List<scalar> 
36
(
0.000160581
7.63827e-05
0.000109526
0.000110406
0.000107784
0.000103373
9.74365e-05
9.14742e-05
8.59398e-05
8.09154e-05
7.63809e-05
7.2315e-05
6.86404e-05
6.52728e-05
6.21109e-05
5.90152e-05
5.57577e-05
5.30341e-05
4.74951e-05
4.7495e-05
6.15192e-05
7.0449e-05
7.78075e-05
9.29446e-05
0.000121582
0.000116766
0.000160581
0.000175021
0.000167276
0.000160455
7.63826e-05
0.000160455
0.000135993
0.000194683
0.000169861
0.000193939
)
;
    }
    ceiling
    {
        type            nutkWallFunction;
        Cmu             0.09;
        kappa           0.41;
        E               9.8;
        value           nonuniform List<scalar> 
43
(
0.000284351
0.000246291
0.000245136
0.000251733
0.000257165
0.000249935
0.000235807
0.000219159
0.000202352
0.00018637
0.000171551
0.000158187
0.000146812
0.000138111
0.00013242
0.000129419
0.000128572
0.000128678
0.000129515
0.000131087
0.000133409
0.000136398
0.000139861
0.000143555
0.000147265
0.000150854
0.000154297
0.000157687
0.000161096
0.000164682
0.000168698
0.000173338
0.00017871
0.000184827
0.000191563
0.000198599
0.000205712
0.000214444
0.000228547
0.000228181
0.000270421
0.000280421
0.000177586
)
;
    }
    sWall
    {
        type            nutkWallFunction;
        Cmu             0.09;
        kappa           0.41;
        E               9.8;
        value           nonuniform List<scalar> 9(0.000373892 0.000352079 0.00032297 0.000296609 0.000297442 0.00027051 0.000314403 0.000301932 0.000284453);
    }
    nWall
    {
        type            nutkWallFunction;
        Cmu             0.09;
        kappa           0.41;
        E               9.8;
        value           nonuniform List<scalar> 
14
(
0.000116773
0.000139068
0.000162549
0.000240278
0.000238188
0.000231098
0.000224887
0.000231637
0.000241733
0.000244711
0.000243799
0.00023385
0.000234288
0.000228216
)
;
    }
    sideWalls
    {
        type            empty;
    }
    glass1
    {
        type            nutkWallFunction;
        Cmu             0.09;
        kappa           0.41;
        E               9.8;
        value           nonuniform List<scalar> 9(0.000108247 0.000156883 0.000196738 0.000234352 0.000270795 0.000306145 0.00034176 0.00037208 0.000381378);
    }
    glass2
    {
        type            nutkWallFunction;
        Cmu             0.09;
        kappa           0.41;
        E               9.8;
        value           nonuniform List<scalar> 2(0.000208879 0.000235985);
    }
    sun
    {
        type            nutkWallFunction;
        Cmu             0.09;
        kappa           0.41;
        E               9.8;
        value           nonuniform List<scalar> 
14
(
0.000108206
0.000115178
0.000114764
0.000119627
0.000124064
0.000128079
0.000131804
0.000135384
0.000138978
0.000142786
0.000146408
0.000149839
0.000153209
0.000156822
)
;
    }
    Table_master
    {
        type            nutkWallFunction;
        Cmu             0.09;
        kappa           0.41;
        E               9.8;
        value           nonuniform List<scalar> 9(0.000139305 0.000121686 0.000107886 9.69383e-05 8.81188e-05 8.09218e-05 7.49944e-05 7.01327e-05 6.63151e-05);
    }
    Table_slave
    {
        type            nutkWallFunction;
        Cmu             0.09;
        kappa           0.41;
        E               9.8;
        value           nonuniform List<scalar> 9(0.000157747 0.000144074 0.000133389 0.000124427 0.000116728 0.000109759 0.00010314 9.65159e-05 8.93015e-05);
    }
    inlet
    {
        type            calculated;
        value           uniform 0.000167705;
    }
    outlet
    {
        type            calculated;
        value           nonuniform List<scalar> 2(0.0027576 0.00666417);
    }
}


// ************************************************************************* //
