/*--------------------------------*- C++ -*----------------------------------*\
  =========                 |
  \\      /  F ield         | OpenFOAM: The Open Source CFD Toolbox
   \\    /   O peration     | Website:  https://openfoam.org
    \\  /    A nd           | Version:  6
     \\/     M anipulation  |
\*---------------------------------------------------------------------------*/
FoamFile
{
    version     2.0;
    format      ascii;
    class       volScalarField;
    location    "4600";
    object      T;
}
// * * * * * * * * * * * * * * * * * * * * * * * * * * * * * * * * * * * * * //

dimensions      [0 0 0 1 0 0 0];

internalField   nonuniform List<scalar> 
662
(
302.55
302.261
302.245
302.24
302.234
302.229
302.222
302.215
302.205
302.19
302.17
302.149
302.137
302.142
302.178
302.356
302.33
302.32
302.326
302.334
302.341
302.348
302.355
302.362
302.369
302.376
302.383
302.39
302.397
302.404
302.412
302.422
302.449
302.764
302.317
302.297
302.303
302.31
302.313
302.313
302.308
302.293
302.26
302.208
302.154
302.122
302.12
302.136
302.15
302.163
302.189
302.364
302.304
302.298
302.306
302.317
302.322
302.326
302.33
302.333
302.337
302.34
302.344
302.348
302.353
302.36
302.37
302.385
302.431
302.989
302.385
302.351
302.374
302.4
302.424
302.44
302.446
302.431
302.376
302.275
302.168
302.111
302.109
302.128
302.144
302.155
302.18
302.311
302.286
302.287
302.304
302.324
302.326
302.328
302.33
302.332
302.335
302.337
302.34
302.342
302.346
302.353
302.361
302.375
302.425
303.209
302.469
302.401
302.433
302.481
302.532
302.58
302.611
302.606
302.526
302.354
302.18
302.097
302.099
302.127
302.15
302.162
302.175
302.186
302.208
302.241
302.28
302.319
302.353
302.38
302.399
302.416
302.429
302.441
302.449
302.457
302.463
302.466
302.438
302.409
302.395
302.428
303.411
302.582
302.463
302.476
302.528
302.593
302.668
302.738
302.762
302.662
302.41
302.177
302.079
302.089
302.133
302.17
302.189
302.2
302.218
302.249
302.289
302.333
302.377
302.415
302.448
302.472
302.491
302.506
302.517
302.522
302.523
302.519
302.51
302.486
302.452
302.421
302.429
302.531
302.613
302.614
303.572
302.798
302.627
302.578
302.59
302.634
302.701
302.798
302.841
302.709
302.416
302.149
302.046
302.08
302.152
302.211
302.245
302.263
302.29
302.326
302.369
302.414
302.456
302.492
302.521
302.544
302.56
302.572
302.579
302.581
302.575
302.564
302.548
302.524
302.49
302.453
302.442
302.488
302.52
302.564
304.827
303.526
303.13
302.919
302.809
302.77
302.793
302.868
302.916
302.772
302.422
302.088
301.981
302.083
302.198
302.283
302.332
302.36
302.39
302.426
302.465
302.504
302.54
302.57
302.593
302.61
302.622
302.629
302.631
302.628
302.619
302.602
302.582
302.557
302.526
302.492
302.472
302.482
302.498
302.531
307.132
304.996
304.255
303.83
303.51
303.291
303.172
303.105
302.928
302.541
302.092
301.855
301.966
302.146
302.299
302.395
302.443
302.47
302.497
302.528
302.56
302.591
302.618
302.639
302.654
302.663
302.669
302.67
302.668
302.662
302.653
302.638
302.617
302.594
302.571
302.546
302.534
302.541
302.564
302.732
293.631
299.405
301.513
302.282
302.499
302.456
302.134
301.73
301.555
301.684
302.089
302.313
302.457
302.518
302.549
302.571
302.593
302.617
302.641
302.662
302.679
302.691
302.698
302.701
302.702
302.7
302.696
302.692
302.688
302.687
302.687
302.693
302.707
302.732
302.769
302.808
302.842
302.92
295.449
295.21
297.483
299.238
300.153
300.476
300.661
300.984
301.44
301.904
302.389
302.519
302.584
302.617
302.638
302.655
302.672
302.688
302.703
302.714
302.722
302.727
302.73
302.73
302.73
302.73
302.73
302.73
302.731
302.732
302.736
302.743
302.757
302.777
302.803
302.83
302.857
302.909
299.903
297.817
295.644
295.622
297.227
298.723
299.661
300.331
300.953
301.538
302.053
302.384
302.601
302.649
302.677
302.694
302.707
302.718
302.728
302.737
302.744
302.748
302.751
302.753
302.753
302.754
302.754
302.754
302.754
302.755
302.756
302.757
302.76
302.766
302.775
302.788
302.806
302.827
302.856
302.884
300.171
299.023
298.506
298.542
299.296
300.117
300.83
301.464
301.984
302.345
302.566
302.679
302.735
302.748
302.758
302.766
302.772
302.777
302.781
302.784
302.786
302.786
302.786
302.786
302.785
302.784
302.782
302.781
302.78
302.779
302.778
302.778
302.778
302.78
302.784
302.791
302.803
302.813
302.876
302.983
303.779
303.32
303.007
302.852
302.776
302.77
302.821
302.906
302.874
302.612
302.235
302.004
305.805
304.544
304.027
303.658
303.387
303.22
303.142
303.041
302.759
302.305
301.936
301.852
297.461
300.708
301.999
302.434
302.5
302.325
301.921
301.602
301.588
301.818
294.364
296.334
298.471
299.788
300.368
300.559
300.801
301.202
301.68
302.091
299.189
296.542
295.112
296.39
298.014
299.244
300.011
300.644
301.248
301.82
302.241
302.487
299.368
298.721
298.413
298.881
299.717
300.485
301.157
301.743
302.184
302.471
302.633
302.71
303.991
304
303.62
303.342
303.136
303.009
302.966
302.987
302.954
302.706
302.293
301.98
307.211
305.039
304.461
303.937
303.58
303.343
303.187
303.042
302.71
302.221
301.828
301.741
295.289
296.331
299.047
300.612
301.281
301.402
301.295
301.221
301.388
301.733
293.974
295.103
296.976
298.604
299.585
300.117
300.58
301.137
301.7
302.155
299.926
298.233
296.969
296.931
298.125
299.284
300.139
300.855
301.493
301.988
302.345
302.547
299.968
299.977
300.055
300.209
300.653
301.183
301.69
302.123
302.43
302.61
302.702
302.733
304.288
303.793
303.471
303.229
303.061
302.977
302.972
302.989
302.861
302.505
302.107
301.925
305.833
304.811
304.173
303.74
303.449
303.257
303.124
302.903
302.473
301.994
301.745
301.803
294.818
297.814
299.97
301.032
301.395
301.366
301.234
301.273
301.549
301.915
294.439
296.005
297.866
299.17
299.885
300.335
300.851
301.427
301.944
302.307
299.004
297.519
296.665
297.491
298.735
299.74
300.506
301.187
301.759
302.187
302.465
302.595
299.957
300.01
300.113
300.405
300.917
301.443
301.92
302.294
302.533
302.665
302.723
302.736
)
;

boundaryField
{
    floor
    {
        type            wallHeatTransfer;
        Tinf            uniform 305.2;
        alphaWall       uniform 0.24;
        value           nonuniform List<scalar> 
36
(
302.488
302.874
302.799
302.751
302.743
302.755
302.782
302.814
302.846
302.877
302.906
302.934
302.961
302.987
303.012
303.038
303.066
303.087
303.142
303.142
303.022
302.957
302.912
302.911
302.968
302.948
302.488
302.419
302.474
302.55
302.874
302.55
302.883
302.494
302.699
302.466
)
;
    }
    ceiling
    {
        type            wallHeatTransfer;
        Tinf            uniform 303.2;
        alphaWall       uniform 0.24;
        value           nonuniform List<scalar> 
58
(
300.168
300.208
300.298
300.57
301.056
301.556
302.01
302.366
302.594
302.721
302.778
302.789
302.793
302.805
302.815
302.823
302.829
302.835
302.84
302.843
302.846
302.847
302.847
302.846
302.844
302.842
302.84
302.838
302.835
302.832
302.83
302.828
302.826
302.825
302.827
302.831
302.841
302.853
302.911
303.004
305.687
304.728
294.897
300.378
300.182
300.246
300.386
300.804
301.309
301.792
302.203
302.495
302.668
302.757
302.787
306.9
304.943
296.092
)
;
    }
    sWall
    {
        type            wallHeatTransfer;
        Tinf            uniform 315.2;
        alphaWall       uniform 0.36;
        value           nonuniform List<scalar> 4(301.155 301.283 301.143 301.667);
    }
    nWall
    {
        type            wallHeatTransfer;
        Tinf            uniform 307.2;
        alphaWall       uniform 0.36;
        value           nonuniform List<scalar> 6(303.451 303.389 303.27 303.514 303.477 303.576);
    }
    sideWalls
    {
        type            empty;
    }
    glass1
    {
        type            wallHeatTransfer;
        Tinf            uniform 315.2;
        alphaWall       uniform 4.3;
        value           nonuniform List<scalar> 10(311.353 310.697 310.247 309.878 309.577 309.278 309.271 311.367 309.811 311.423);
    }
    glass2
    {
        type            wallHeatTransfer;
        Tinf            uniform 307.2;
        alphaWall       uniform 4.3;
        value           nonuniform List<scalar> 2(305.471 305.601);
    }
    sun
    {
        type            wallHeatTransfer;
        Tinf            uniform 305.2;
        alphaWall       uniform 0.24;
        value           nonuniform List<scalar> 
14
(
302.844
302.568
302.55
302.534
302.52
302.507
302.493
302.48
302.463
302.443
302.419
302.398
302.391
302.409
)
;
    }
    Table_master
    {
        type            zeroGradient;
    }
    Table_slave
    {
        type            zeroGradient;
    }
    inlet
    {
        type            fixedValue;
        value           uniform 293.15;
    }
    outlet
    {
        type            zeroGradient;
    }
}


// ************************************************************************* //
