/*--------------------------------*- C++ -*----------------------------------*\
  =========                 |
  \\      /  F ield         | OpenFOAM: The Open Source CFD Toolbox
   \\    /   O peration     | Website:  https://openfoam.org
    \\  /    A nd           | Version:  6
     \\/     M anipulation  |
\*---------------------------------------------------------------------------*/
FoamFile
{
    version     2.0;
    format      ascii;
    class       volVectorField;
    location    "4600";
    object      U;
}
// * * * * * * * * * * * * * * * * * * * * * * * * * * * * * * * * * * * * * //

dimensions      [0 1 -1 0 0 0 0];

internalField   nonuniform List<vector> 
778
(
(0.0655947 0.0794097 0)
(-0.155181 0.0157691 0)
(-0.164315 0.0146299 0)
(-0.192441 0.0122814 0)
(-0.216889 0.00873214 0)
(-0.236963 0.00475123 0)
(-0.252104 0.000423344 0)
(-0.261887 -0.00436408 0)
(-0.265798 -0.00980952 0)
(-0.262831 -0.0161932 0)
(-0.251031 -0.0242708 0)
(-0.226327 -0.0348949 0)
(-0.186191 -0.050423 0)
(-0.144242 -0.0752035 0)
(-0.150138 -0.108612 0)
(0.0546115 0.0354876 0)
(0.0156897 -0.0268647 0)
(0.0448545 -0.0232595 0)
(0.0692334 -0.0161565 0)
(0.0842778 -0.0103503 0)
(0.09148 -0.00641394 0)
(0.0943137 -0.00433516 0)
(0.095344 -0.00331175 0)
(0.0957906 -0.00272534 0)
(0.0959549 -0.00231348 0)
(0.0958268 -0.00195052 0)
(0.0953001 -0.00151162 0)
(0.0940452 -0.000759234 0)
(0.0912041 0.000842792 0)
(0.0850112 0.0040619 0)
(0.0734933 0.00776366 0)
(0.0598636 0.0116034 0)
(-0.00795735 0.0299603 0)
(0.258391 0.167399 0)
(-0.161239 0.0484016 0)
(-0.141616 0.0459923 0)
(-0.174029 0.0416299 0)
(-0.199403 0.035686 0)
(-0.220137 0.0291494 0)
(-0.236182 0.022079 0)
(-0.24745 0.0142475 0)
(-0.253641 0.0053116 0)
(-0.253972 -0.00514386 0)
(-0.247825 -0.0170826 0)
(-0.234124 -0.0308603 0)
(-0.214218 -0.0480965 0)
(-0.197647 -0.0699921 0)
(-0.194139 -0.0826862 0)
(-0.166514 -0.0426013 0)
(-0.105412 -0.036433 0)
(-0.0983409 -0.0445298 0)
(0.109328 -0.0419888 0)
(0.0644182 -0.0411019 0)
(0.0718194 -0.0322284 0)
(0.0857693 -0.0206892 0)
(0.0936454 -0.0104477 0)
(0.0958706 -0.00363711 0)
(0.0956336 -0.000190053 0)
(0.0952479 0.00126104 0)
(0.0952112 0.00190842 0)
(0.0952903 0.0022777 0)
(0.0952952 0.00259408 0)
(0.0951935 0.00313156 0)
(0.0949022 0.00440908 0)
(0.0936463 0.00771977 0)
(0.0880555 0.0167413 0)
(0.0743162 0.0253064 0)
(0.0630027 0.0329062 0)
(-0.0520241 0.0634876 0)
(0.429965 0.253964 0)
(-0.194236 0.084776 0)
(-0.112793 0.0784517 0)
(-0.148267 0.0669796 0)
(-0.170708 0.0555292 0)
(-0.188813 0.0437609 0)
(-0.202663 0.0313802 0)
(-0.212368 0.0180424 0)
(-0.217733 0.00342841 0)
(-0.218102 -0.0126125 0)
(-0.212854 -0.0303174 0)
(-0.201753 -0.0499161 0)
(-0.186118 -0.0715906 0)
(-0.16959 -0.0932473 0)
(-0.151226 -0.10461 0)
(-0.120383 -0.0931978 0)
(-0.0796713 -0.0950202 0)
(-0.0715717 -0.107696 0)
(0.0920757 -0.0880368 0)
(0.0625102 -0.0656531 0)
(0.0742862 -0.046051 0)
(0.0878927 -0.029185 0)
(0.0946928 -0.0148448 0)
(0.0917591 -0.01203 0)
(0.087529 -0.00798126 0)
(0.085158 -0.00580205 0)
(0.0844652 -0.00456592 0)
(0.0844478 -0.00379602 0)
(0.0847098 -0.00322237 0)
(0.0853644 -0.00259747 0)
(0.0871242 -0.0014408 0)
(0.0918028 0.00291617 0)
(0.0899578 0.0250827 0)
(0.0731703 0.0423032 0)
(0.0699354 0.0573763 0)
(-0.0900947 0.100747 0)
(0.578526 0.325854 0)
(-0.240103 0.121834 0)
(-0.0808516 0.109249 0)
(-0.1216 0.0898859 0)
(-0.139042 0.0741082 0)
(-0.153112 0.0586804 0)
(-0.163882 0.0428006 0)
(-0.171487 0.0258556 0)
(-0.175708 0.00723734 0)
(-0.175784 -0.0135036 0)
(-0.171102 -0.0364561 0)
(-0.161542 -0.061454 0)
(-0.147687 -0.0873795 0)
(-0.130727 -0.110314 0)
(-0.10979 -0.123224 0)
(-0.0823303 -0.124581 0)
(-0.0527398 -0.126436 0)
(-0.0336337 -0.123243 0)
(0.0160308 -0.0568244 0)
(0.0606109 -0.0929601 0)
(0.0683282 -0.0790954 0)
(0.0789798 -0.058739 0)
(0.0914837 -0.0395027 0)
(0.102838 -0.020839 0)
(0.115583 -0.0131873 0)
(0.126712 -0.00882008 0)
(0.132292 -0.00561191 0)
(0.133259 -0.00310228 0)
(0.130718 -0.000875049 0)
(0.12524 0.00129569 0)
(0.116702 0.00367474 0)
(0.104341 0.00672423 0)
(0.0851022 0.0111446 0)
(0.0712499 0.0367951 0)
(0.0599873 0.060474 0)
(0.0760675 0.0832213 0)
(-0.11778 0.136882 0)
(0.7057 0.383699 0)
(-0.287676 0.157037 0)
(-0.0477163 0.133817 0)
(-0.0963211 0.106961 0)
(-0.107779 0.0876459 0)
(-0.116821 0.0692311 0)
(-0.123619 0.050509 0)
(-0.128287 0.0306477 0)
(-0.130654 0.00877532 0)
(-0.129853 -0.015783 0)
(-0.125358 -0.0430549 0)
(-0.116742 -0.0726691 0)
(-0.104035 -0.102809 0)
(-0.0875888 -0.129066 0)
(-0.067666 -0.14577 0)
(-0.0443504 -0.152269 0)
(-0.0205062 -0.152405 0)
(1.42487e-05 -0.143779 0)
(0.0305622 -0.115016 0)
(0.0567674 -0.109337 0)
(0.0703932 -0.0923863 0)
(0.0805678 -0.0711978 0)
(0.0906485 -0.0507354 0)
(0.100215 -0.032695 0)
(0.10932 -0.019337 0)
(0.116326 -0.00996641 0)
(0.119727 -0.0032732 0)
(0.119899 0.00197604 0)
(0.117463 0.00651345 0)
(0.112791 0.0108527 0)
(0.105915 0.0155058 0)
(0.0967701 0.0211771 0)
(0.0848554 0.0291688 0)
(0.0733132 0.0471621 0)
(0.0628291 0.0711813 0)
(0.0943378 0.0992549 0)
(0.0164247 0.138083 0)
(0.0956799 0.182846 0)
(0.141035 0.147331 0)
(-0.224849 0.203445 0)
(0.810406 0.431997 0)
(-0.331311 0.190713 0)
(-0.0173353 0.150297 0)
(-0.0734006 0.117575 0)
(-0.0786336 0.0955744 0)
(-0.0822642 0.0750139 0)
(-0.0845265 0.0544141 0)
(-0.0855701 0.0327885 0)
(-0.0853185 0.00892061 0)
(-0.0826447 -0.0183633 0)
(-0.0774792 -0.0489881 0)
(-0.0688585 -0.0824619 0)
(-0.0568798 -0.116452 0)
(-0.0418522 -0.146241 0)
(-0.0248882 -0.165944 0)
(-0.00652821 -0.174476 0)
(0.0118553 -0.172769 0)
(0.0277671 -0.161051 0)
(0.045947 -0.139364 0)
(0.0624261 -0.122365 0)
(0.0731329 -0.102485 0)
(0.0808422 -0.0804073 0)
(0.087618 -0.0590441 0)
(0.0938039 -0.0401576 0)
(0.0991281 -0.0249827 0)
(0.102798 -0.0136286 0)
(0.104376 -0.0049409 0)
(0.103917 0.00224145 0)
(0.101733 0.00869175 0)
(0.0980774 0.0149276 0)
(0.0931118 0.0214784 0)
(0.0870699 0.0289843 0)
(0.0802115 0.038371 0)
(0.074466 0.0527962 0)
(0.0692112 0.0728148 0)
(0.0911634 0.0985585 0)
(0.0728629 0.10732 0)
(0.0892684 0.0479751 0)
(0.146196 -0.0369864 0)
(-0.329249 0.105857 0)
(0.879888 0.474711 0)
(-0.368631 0.221004 0)
(0.00370661 0.155622 0)
(-0.0526973 0.121639 0)
(-0.0522528 0.0979269 0)
(-0.0510831 0.0759009 0)
(-0.0490876 0.0541241 0)
(-0.0465771 0.0316111 0)
(-0.0433919 0.00683938 0)
(-0.0374281 -0.0222428 0)
(-0.0303526 -0.0553163 0)
(-0.0205772 -0.0918736 0)
(-0.00879152 -0.1288 0)
(0.00438399 -0.161124 0)
(0.0174237 -0.181793 0)
(0.0301941 -0.190171 0)
(0.0419945 -0.187235 0)
(0.0523013 -0.174462 0)
(0.0622853 -0.154118 0)
(0.0708867 -0.132449 0)
(0.0764417 -0.1094 0)
(0.0799287 -0.0858614 0)
(0.0825425 -0.0636491 0)
(0.0847811 -0.0441219 0)
(0.0866006 -0.028005 0)
(0.0876672 -0.015202 0)
(0.0877622 -0.00493623 0)
(0.0867387 0.00370813 0)
(0.084795 0.0114098 0)
(0.0820831 0.018691 0)
(0.0787872 0.0260561 0)
(0.0751942 0.0340187 0)
(0.0717095 0.0431582 0)
(0.0696962 0.0548016 0)
(0.0685045 0.0693795 0)
(0.0813812 0.088631 0)
(0.0840919 0.0921804 0)
(0.0888097 0.0547048 0)
(0.180743 0.0247827 0)
(-0.281804 0.153688 0)
(0.927947 0.517167 0)
(-0.383161 0.234222 0)
(0.0168963 0.133065 0)
(-0.0273616 0.116742 0)
(-0.0265967 0.095009 0)
(-0.0228014 0.0725174 0)
(-0.0176996 0.0501908 0)
(-0.0124311 0.027329 0)
(-0.00547593 0.00192585 0)
(0.00451466 -0.0306917 0)
(0.0142344 -0.0652723 0)
(0.0255215 -0.103241 0)
(0.0371368 -0.14072 0)
(0.0477804 -0.171978 0)
(0.0568411 -0.192195 0)
(0.0643071 -0.199739 0)
(0.070014 -0.195386 0)
(0.0739672 -0.181244 0)
(0.0766796 -0.160181 0)
(0.0780644 -0.136178 0)
(0.0777338 -0.11113 0)
(0.0762564 -0.0865577 0)
(0.0744551 -0.0639441 0)
(0.0728486 -0.0442973 0)
(0.07157 -0.0279995 0)
(0.0704822 -0.0147721 0)
(0.0693927 -0.0039237 0)
(0.0680119 0.00531637 0)
(0.0664665 0.0135233 0)
(0.0647365 0.0211813 0)
(0.0629167 0.0287203 0)
(0.0612108 0.0365057 0)
(0.05994 0.044857 0)
(0.0599858 0.0543044 0)
(0.0611871 0.0649277 0)
(0.0700023 0.0784742 0)
(0.0792193 0.0825307 0)
(0.0775305 0.0625171 0)
(0.238637 0.052297 0)
(-0.558528 0.230744 0)
(1.0113 0.506846 0)
(-0.137351 0.296375 0)
(0.0410746 0.161574 0)
(0.0405587 0.122163 0)
(0.0130398 0.092056 0)
(0.00861385 0.0654456 0)
(0.0140317 0.0414652 0)
(0.0206523 0.017043 0)
(0.0324682 -0.0109775 0)
(0.0439366 -0.0421132 0)
(0.0558066 -0.0768545 0)
(0.0680695 -0.11453 0)
(0.0791787 -0.150932 0)
(0.0876421 -0.180365 0)
(0.0928227 -0.198415 0)
(0.0948393 -0.203652 0)
(0.0941071 -0.197092 0)
(0.0911782 -0.181126 0)
(0.0867304 -0.158776 0)
(0.0812128 -0.133351 0)
(0.0749132 -0.107289 0)
(0.0684241 -0.0824263 0)
(0.06246 -0.0601324 0)
(0.0575302 -0.0411413 0)
(0.0538156 -0.0255459 0)
(0.0512062 -0.0128594 0)
(0.0494332 -0.00232059 0)
(0.0480972 0.00675253 0)
(0.0471893 0.0148526 0)
(0.0464906 0.0224169 0)
(0.0459677 0.0297819 0)
(0.045694 0.0371735 0)
(0.0458441 0.0447206 0)
(0.0469294 0.0525636 0)
(0.0490192 0.0605709 0)
(0.0553846 0.069626 0)
(0.0641874 0.0712506 0)
(0.0555588 0.0486285 0)
(0.29396 0.0723188 0)
(-0.772381 0.300141 0)
(0.779342 0.39578 0)
(0.000729194 0.319528 0)
(0.0933683 0.218947 0)
(0.110579 0.155216 0)
(0.0771449 0.106878 0)
(0.0597693 0.0676007 0)
(0.0581866 0.0358077 0)
(0.0623514 0.00644543 0)
(0.0737871 -0.0234151 0)
(0.0853628 -0.055024 0)
(0.0975544 -0.0897031 0)
(0.1094 -0.126143 0)
(0.11874 -0.159851 0)
(0.123801 -0.185529 0)
(0.12399 -0.199627 0)
(0.119738 -0.201301 0)
(0.112003 -0.191884 0)
(0.101861 -0.173891 0)
(0.0903569 -0.150326 0)
(0.0783321 -0.124211 0)
(0.0664747 -0.0980856 0)
(0.0555132 -0.0738804 0)
(0.0461672 -0.0528571 0)
(0.0388922 -0.0354657 0)
(0.0337701 -0.0215021 0)
(0.0305472 -0.0102038 0)
(0.0287615 -0.000685033 0)
(0.0279426 0.00766161 0)
(0.0278419 0.0152715 0)
(0.0281315 0.0225097 0)
(0.0286835 0.0296048 0)
(0.0294395 0.0366697 0)
(0.0303808 0.0437124 0)
(0.0316256 0.0506753 0)
(0.0329488 0.0573585 0)
(0.0352599 0.0644016 0)
(0.026759 0.0682874 0)
(0.022204 0.0809098 0)
(0.132375 0.160426 0)
(-0.6496 0.304653 0)
(0.617282 0.220918 0)
(0.00461142 0.298153 0)
(0.113036 0.241567 0)
(0.148304 0.177581 0)
(0.13087 0.123541 0)
(0.117847 0.0778662 0)
(0.114984 0.038916 0)
(0.117152 0.00341129 0)
(0.123521 -0.0307125 0)
(0.131752 -0.0649924 0)
(0.141432 -0.100436 0)
(0.150288 -0.135224 0)
(0.155379 -0.165015 0)
(0.154783 -0.185516 0)
(0.148192 -0.194439 0)
(0.136507 -0.191798 0)
(0.121202 -0.179306 0)
(0.103788 -0.159499 0)
(0.0856396 -0.135256 0)
(0.0678734 -0.109358 0)
(0.0514414 -0.0842768 0)
(0.0372206 -0.0618935 0)
(0.0259514 -0.0433055 0)
(0.017888 -0.0285652 0)
(0.0127801 -0.0170816 0)
(0.00996518 -0.00773458 0)
(0.00872139 0.000397683 0)
(0.00865835 0.00779355 0)
(0.00929334 0.0147957 0)
(0.0103813 0.0216583 0)
(0.0117601 0.0285257 0)
(0.0132639 0.0354706 0)
(0.0146686 0.0424886 0)
(0.0157424 0.0494969 0)
(0.0162474 0.0563966 0)
(0.0156145 0.0648357 0)
(-0.0096666 0.0857053 0)
(-0.00283489 0.120329 0)
(0.115337 0.178571 0)
(-0.557916 0.240199 0)
(0.570769 0.118555 0)
(-0.0202987 0.258664 0)
(0.113748 0.229905 0)
(0.165092 0.176084 0)
(0.16675 0.126216 0)
(0.164403 0.0811295 0)
(0.165385 0.039993 0)
(0.168311 0.00163503 0)
(0.172283 -0.0353936 0)
(0.177869 -0.0718931 0)
(0.184037 -0.107489 0)
(0.187702 -0.139432 0)
(0.185855 -0.163896 0)
(0.177123 -0.178109 0)
(0.161954 -0.18129 0)
(0.141889 -0.174321 0)
(0.118873 -0.159207 0)
(0.0946721 -0.138349 0)
(0.0708886 -0.114437 0)
(0.0487816 -0.089964 0)
(0.0295404 -0.0673009 0)
(0.0141821 -0.048203 0)
(0.00329362 -0.0334091 0)
(-0.00358298 -0.0221058 0)
(-0.00724699 -0.0135249 0)
(-0.00905152 -0.00612593 0)
(-0.00961347 0.000697201 0)
(-0.00917965 0.00720045 0)
(-0.0081039 0.0135917 0)
(-0.00649536 0.0200383 0)
(-0.00450561 0.0266815 0)
(-0.00236626 0.0336694 0)
(-0.000487642 0.0411546 0)
(0.000490625 0.0492318 0)
(0.000258734 0.0584072 0)
(-0.00538295 0.0744506 0)
(-0.0374785 0.111645 0)
(-0.0285872 0.150204 0)
(0.0454096 0.183389 0)
(-0.525105 0.176532 0)
(0.628427 0.0536878 0)
(0.00941612 0.197313 0)
(0.113882 0.196982 0)
(0.175176 0.15798 0)
(0.191408 0.117737 0)
(0.198045 0.07731 0)
(0.203365 0.0372882 0)
(0.208578 -0.00152504 0)
(0.213111 -0.0396933 0)
(0.217454 -0.0765274 0)
(0.219283 -0.109847 0)
(0.215433 -0.136525 0)
(0.20402 -0.154011 0)
(0.185137 -0.161353 0)
(0.160396 -0.159124 0)
(0.131959 -0.14872 0)
(0.102085 -0.132196 0)
(0.0725027 -0.11161 0)
(0.0450159 -0.0894657 0)
(0.0208903 -0.0679679 0)
(0.00172983 -0.0494234 0)
(-0.0115149 -0.0354038 0)
(-0.0191514 -0.0257143 0)
(-0.0234028 -0.0181366 0)
(-0.0255809 -0.0115709 0)
(-0.0265775 -0.00541148 0)
(-0.0267143 0.000515301 0)
(-0.026083 0.00629396 0)
(-0.024804 0.012063 0)
(-0.0228682 0.0179967 0)
(-0.0203815 0.0243166 0)
(-0.0175747 0.0313264 0)
(-0.0149379 0.0394424 0)
(-0.0133902 0.0492998 0)
(-0.0135402 0.0625736 0)
(-0.0181314 0.0868932 0)
(-0.0450667 0.134417 0)
(-0.0376245 0.180838 0)
(-0.0129909 0.173916 0)
(-0.541676 0.0821242 0)
(0.472505 0.0747699 0)
(-0.132008 0.137616 0)
(0.094266 0.13337 0)
(0.172741 0.116881 0)
(0.203825 0.0954145 0)
(0.218084 0.0644364 0)
(0.228061 0.0283857 0)
(0.237161 -0.00902067 0)
(0.243596 -0.0453941 0)
(0.245151 -0.078289 0)
(0.239193 -0.105034 0)
(0.224367 -0.12361 0)
(0.201192 -0.133215 0)
(0.17157 -0.134334 0)
(0.138071 -0.128236 0)
(0.102985 -0.116192 0)
(0.0686552 -0.100065 0)
(0.0363009 -0.0814456 0)
(0.00840216 -0.0628562 0)
(-0.0141393 -0.0463327 0)
(-0.0279926 -0.0352488 0)
(-0.0361743 -0.0275049 0)
(-0.0405833 -0.0214537 0)
(-0.0429131 -0.0159192 0)
(-0.044055 -0.0105125 0)
(-0.0444849 -0.00513561 0)
(-0.04434 0.000131677 0)
(-0.043593 0.00524881 0)
(-0.042221 0.0103199 0)
(-0.0400599 0.0155733 0)
(-0.0371233 0.0213453 0)
(-0.033547 0.0281121 0)
(-0.0297088 0.036561 0)
(-0.0264272 0.0478362 0)
(-0.0239008 0.0642634 0)
(-0.0193579 0.0917549 0)
(-0.0257227 0.140876 0)
(-0.0200589 0.203758 0)
(0.109944 0.195952 0)
(-0.479249 0.0365073 0)
(0.72408 0.134425 0)
(0.0818299 0.11524 0)
(0.14972 0.0992662 0)
(0.222346 0.0805724 0)
(0.243977 0.0700152 0)
(0.248756 0.047717 0)
(0.255075 0.0175298 0)
(0.261234 -0.0148073 0)
(0.260322 -0.0448531 0)
(0.249888 -0.0696269 0)
(0.229687 -0.0874248 0)
(0.201279 -0.09782 0)
(0.167024 -0.101167 0)
(0.129438 -0.0984941 0)
(0.0910169 -0.0910974 0)
(0.0531935 -0.0796576 0)
(0.0187836 -0.0658639 0)
(-0.0126628 -0.0508933 0)
(-0.034613 -0.0395989 0)
(-0.0489485 -0.0319384 0)
(-0.0571535 -0.0270117 0)
(-0.0616767 -0.0230452 0)
(-0.0640458 -0.0191124 0)
(-0.0652009 -0.0147895 0)
(-0.0656286 -0.0100965 0)
(-0.0655928 -0.00522431 0)
(-0.0651706 -0.000429824 0)
(-0.0643159 0.00411559 0)
(-0.0629859 0.00845652 0)
(-0.0608413 0.0128637 0)
(-0.05779 0.0177759 0)
(-0.0538208 0.0238135 0)
(-0.0490297 0.0318833 0)
(-0.0436558 0.0433484 0)
(-0.0371738 0.0602034 0)
(-0.0251534 0.0856703 0)
(-0.0103158 0.126389 0)
(-1.59432e-05 0.186435 0)
(0.162107 0.184844 0)
(-0.369921 0.0925348 0)
(0.191738 0.0880578 0)
(0.225605 0.099868 0)
(0.246379 0.0702571 0)
(0.242457 0.0399007 0)
(0.239698 0.0121425 0)
(0.234754 -0.0129473 0)
(0.220114 -0.0334553 0)
(0.196489 -0.048535 0)
(0.166192 -0.0581675 0)
(0.131637 -0.0628544 0)
(0.0945906 -0.0629445 0)
(0.0569531 -0.0592013 0)
(0.0207128 -0.0525592 0)
(-0.0148691 -0.0432411 0)
(-0.0423192 -0.0348068 0)
(-0.0627404 -0.0285064 0)
(-0.0759866 -0.0251158 0)
(-0.0840081 -0.0233256 0)
(-0.0886372 -0.0219926 0)
(-0.0913163 -0.0201317 0)
(-0.0928002 -0.0174348 0)
(-0.0934932 -0.0139226 0)
(-0.0936392 -0.00980123 0)
(-0.0934132 -0.00536747 0)
(-0.0928982 -0.000959208 0)
(-0.092102 0.00315023 0)
(-0.0911181 0.00688225 0)
(-0.0895713 0.0104606 0)
(-0.0872764 0.0143752 0)
(-0.0839797 0.0193046 0)
(-0.0792402 0.0261251 0)
(-0.0724667 0.0359013 0)
(-0.0625911 0.0497764 0)
(-0.0462503 0.0688545 0)
(-0.0203471 0.0952156 0)
(0.00641231 0.140075 0)
(0.182757 0.156428 0)
(-0.344116 0.151247 0)
(0.450868 0.209881 0)
(0.205882 0.178851 0)
(0.152428 0.11882 0)
(0.139476 0.0639724 0)
(0.12826 0.0257283 0)
(0.114379 0.00158412 0)
(0.0990651 -0.0131315 0)
(0.0780695 -0.0221561 0)
(0.0533486 -0.0275254 0)
(0.0260138 -0.0296472 0)
(-0.00424985 -0.0284205 0)
(-0.0339926 -0.024896 0)
(-0.060544 -0.0206642 0)
(-0.0827184 -0.0172655 0)
(-0.0988654 -0.0161792 0)
(-0.109673 -0.0168611 0)
(-0.116469 -0.0185417 0)
(-0.120871 -0.0199033 0)
(-0.123879 -0.0202493 0)
(-0.126004 -0.0192961 0)
(-0.127471 -0.0170465 0)
(-0.128399 -0.0136576 0)
(-0.12887 -0.00941117 0)
(-0.128954 -0.00471051 0)
(-0.128696 -8.63288e-05 0)
(-0.12815 0.00388185 0)
(-0.127576 0.0070548 0)
(-0.126774 0.00982365 0)
(-0.125498 0.012671 0)
(-0.123334 0.0161039 0)
(-0.119562 0.0206434 0)
(-0.113315 0.0268078 0)
(-0.103553 0.0348245 0)
(-0.0874729 0.0440213 0)
(-0.0589786 0.0534874 0)
(-0.0170833 0.0703532 0)
(0.182288 0.123951 0)
(-0.426609 0.219279 0)
(0.358726 -0.417214 0)
(-0.346474 -0.512931 0)
(-0.21852 -0.0271616 0)
(-0.093474 0.111065 0)
(-0.0539659 0.0925568 0)
(-0.0315576 0.0544361 0)
(-0.0266559 0.0281802 0)
(-0.0315213 0.0114125 0)
(-0.0401573 0.00060612 0)
(-0.0506302 -0.0063367 0)
(-0.0643374 -0.0103455 0)
(-0.0799674 -0.0122562 0)
(-0.0964571 -0.0133463 0)
(-0.112377 -0.0151553 0)
(-0.126511 -0.0181243 0)
(-0.13789 -0.0215328 0)
(-0.145868 -0.0244957 0)
(-0.150912 -0.0267236 0)
(-0.154335 -0.0282302 0)
(-0.157069 -0.0289979 0)
(-0.15949 -0.0289917 0)
(-0.161685 -0.0281792 0)
(-0.163645 -0.0265863 0)
(-0.165347 -0.0243004 0)
(-0.166788 -0.0214437 0)
(-0.167973 -0.0181094 0)
(-0.168827 -0.0142693 0)
(-0.169102 -0.00970274 0)
(-0.168603 -0.00488897 0)
(-0.167429 -0.000406994 0)
(-0.165605 0.00392743 0)
(-0.162997 0.00840985 0)
(-0.159324 0.01332 0)
(-0.154569 0.0189061 0)
(-0.149276 0.0252171 0)
(-0.142744 0.0321179 0)
(-0.128413 0.0418972 0)
(-0.0932221 0.0678797 0)
(-0.0600164 0.131449 0)
(-0.552619 0.22219 0)
(0.122299 -0.186383 0)
(-0.388775 -0.298183 0)
(-0.343753 -0.0962906 0)
(-0.265355 0.0518069 0)
(-0.21166 0.0835918 0)
(-0.179558 0.0745443 0)
(-0.163339 0.0610467 0)
(-0.15738 0.0511688 0)
(-0.157436 0.0462241 0)
(-0.160662 0.0460168 0)
(-0.165171 0.0497006 0)
(-0.169492 0.0560566 0)
(-0.172771 0.0636618 0)
(-0.174839 0.0707982 0)
(-0.176097 0.0755622 0)
(-0.177141 0.0757354 0)
(-0.178654 0.0700579 0)
(-0.180858 0.0630839 0)
(-0.18382 0.0567023 0)
(-0.187459 0.0515669 0)
(-0.191589 0.0479074 0)
(-0.195927 0.0458266 0)
(-0.200123 0.0453184 0)
(-0.203806 0.0462288 0)
(-0.206655 0.0481873 0)
(-0.208478 0.0505243 0)
(-0.20923 0.0521908 0)
(-0.208872 0.0517324 0)
(-0.207329 0.0495495 0)
(-0.204552 0.0470774 0)
(-0.200589 0.0445979 0)
(-0.195315 0.0422259 0)
(-0.188459 0.0401261 0)
(-0.180098 0.0384438 0)
(-0.170929 0.0368517 0)
(-0.159364 0.0339859 0)
(-0.133494 0.0293085 0)
(-0.0672713 0.0322444 0)
(0.109494 0.076008 0)
(-0.55813 0.128987 0)
(1.14901 -0.0111925 0)
(-0.297747 -0.323724 0)
(-0.353595 -0.233324 0)
(-0.353282 -0.148971 0)
(-0.329577 -0.107732 0)
(-0.298109 -0.0993302 0)
(-0.271111 -0.101699 0)
(-0.251648 -0.107576 0)
(-0.238675 -0.115296 0)
(-0.229995 -0.124688 0)
(-0.223566 -0.135959 0)
(-0.217958 -0.149166 0)
(-0.212513 -0.163761 0)
(-0.2073 -0.178321 0)
(-0.202975 -0.190636 0)
(-0.20065 -0.198382 0)
(-0.201513 -0.199823 0)
(-0.206103 -0.197909 0)
(-0.213736 -0.193622 0)
(-0.22344 -0.187532 0)
(-0.234199 -0.180181 0)
(-0.245036 -0.172197 0)
(-0.255066 -0.16421 0)
(-0.263519 -0.156673 0)
(-0.269769 -0.149725 0)
(-0.273371 -0.14318 0)
(-0.274193 -0.136596 0)
(-0.27254 -0.129464 0)
(-0.269257 -0.122361 0)
(-0.264987 -0.115724 0)
(-0.259792 -0.109035 0)
(-0.2535 -0.101884 0)
(-0.245907 -0.0941396 0)
(-0.237535 -0.0859426 0)
(-0.230139 -0.0777581 0)
(-0.223176 -0.0701171 0)
(-0.202997 -0.0610177 0)
(-0.148927 -0.0387974 0)
(-0.132634 0.0129106 0)
(-0.647849 0.0622377 0)
)
;

boundaryField
{
    floor
    {
        type            noSlip;
    }
    ceiling
    {
        type            noSlip;
    }
    sWall
    {
        type            noSlip;
    }
    nWall
    {
        type            noSlip;
    }
    sideWalls
    {
        type            empty;
    }
    glass1
    {
        type            noSlip;
    }
    glass2
    {
        type            noSlip;
    }
    sun
    {
        type            noSlip;
    }
    Table_master
    {
        type            noSlip;
    }
    Table_slave
    {
        type            noSlip;
    }
    inlet
    {
        type            fixedValue;
        value           uniform (0.5 0 0);
    }
    outlet
    {
        type            zeroGradient;
    }
}


// ************************************************************************* //
