/*--------------------------------*- C++ -*----------------------------------*\
  =========                 |
  \\      /  F ield         | OpenFOAM: The Open Source CFD Toolbox
   \\    /   O peration     | Website:  https://openfoam.org
    \\  /    A nd           | Version:  6
     \\/     M anipulation  |
\*---------------------------------------------------------------------------*/
FoamFile
{
    version     2.0;
    format      ascii;
    class       volScalarField;
    location    "36699.9999984896494";
    object      alphat;
}
// * * * * * * * * * * * * * * * * * * * * * * * * * * * * * * * * * * * * * //

dimensions      [1 -1 -1 0 0 0 0];

internalField   nonuniform List<scalar> 
778
(
0.00104102
0.00111057
0.00110655
0.00115457
0.00119857
0.00123852
0.00127572
0.00131159
0.0013477
0.00138609
0.00142272
0.00145754
0.00149186
0.00152878
0.00156731
0.00073672
0.0010558
0.00106436
0.00103861
0.000995487
0.000937833
0.000880395
0.000827526
0.000779896
0.000737199
0.000699145
0.000664957
0.000633806
0.000604727
0.000576425
0.000546832
0.000522241
0.000472674
0.0015247
0.0030074
0.00263939
0.0030465
0.00334187
0.00365494
0.00396719
0.00425491
0.00448653
0.00462143
0.00470083
0.00466845
0.00443603
0.00385965
0.00281914
0.0017163
0.0016364
0.00156644
0.00131884
0.0022467
0.00311456
0.00362731
0.00365138
0.00288102
0.00246402
0.00217487
0.0019553
0.00178065
0.00163184
0.00150032
0.00137793
0.00125818
0.00115072
0.00105806
0.00119144
0.000599354
0.0019342
0.00419896
0.00311339
0.00445343
0.00497612
0.00541827
0.00581971
0.00617293
0.00647216
0.00670689
0.00693449
0.00717435
0.0073953
0.00752768
0.00744253
0.00681605
0.00498582
0.00192159
0.00166349
0.00355802
0.00496645
0.00563387
0.00512507
0.00135239
0.00117602
0.00103987
0.000933297
0.000848477
0.000780023
0.000724207
0.000678825
0.000643448
0.000707274
0.000831895
0.00131665
0.000681933
0.00232918
0.00565869
0.00297905
0.00500688
0.0057807
0.00619443
0.00649841
0.00672311
0.0068907
0.0070266
0.00722013
0.00754766
0.00802614
0.00862838
0.00923442
0.00953442
0.00895558
0.00668451
0.00191351
0.00442767
0.00658829
0.00768824
0.00796157
0.00679894
0.00153943
0.00140035
0.00129269
0.00120309
0.0011267
0.00105809
0.000993409
0.00092919
0.000859859
0.000803175
0.000832267
0.00142469
0.000751052
0.00271847
0.00749088
0.00300565
0.00475912
0.00594884
0.00630153
0.00642921
0.00643363
0.0063692
0.00631218
0.00639295
0.00671096
0.00729518
0.00812312
0.00908363
0.00996884
0.0105304
0.0105243
0.00944478
0.0096085
0.00982862
0.0098605
0.00966156
0.00904508
0.00719977
0.00622009
0.00554885
0.00500393
0.00446882
0.00395018
0.00344265
0.00293577
0.00241513
0.00185529
0.00141603
0.0014132
0.0011186
0.00089531
0.00117482
0.00113157
0.00310143
0.00954112
0.00353866
0.00401287
0.00569923
0.00609064
0.00605889
0.0058403
0.00552806
0.00527053
0.00526456
0.00559769
0.00626336
0.00722341
0.00834695
0.00946943
0.0104237
0.011033
0.0111436
0.0110312
0.0108352
0.010558
0.0102022
0.00974942
0.00908814
0.00845066
0.00787163
0.00731227
0.00670773
0.00606181
0.00537175
0.0046318
0.00383732
0.00299456
0.00223233
0.0016763
0.00130189
0.00145172
0.00251236
0.0013554
0.00349221
0.0114363
0.00471561
0.00328757
0.0051204
0.00576077
0.0056894
0.00533611
0.00482385
0.00437327
0.00436001
0.00478055
0.00554263
0.00661631
0.00783738
0.00904572
0.0100847
0.010828
0.0111693
0.011142
0.0108967
0.010526
0.0101019
0.00967914
0.00927027
0.00889492
0.00854219
0.00816601
0.0077113
0.00716377
0.00651547
0.00576332
0.00491013
0.00397781
0.00306753
0.00222093
0.00163682
0.00145544
0.00255346
0.00159383
0.00382795
0.0128689
0.00642842
0.00313096
0.00405545
0.00510625
0.00525298
0.00496295
0.00435713
0.00374503
0.0038834
0.00443973
0.00529244
0.00639925
0.00766838
0.00893354
0.0100113
0.010759
0.0110976
0.0110521
0.0107351
0.0102684
0.00976666
0.00932188
0.00897915
0.00873429
0.00854327
0.00833587
0.00804701
0.00764268
0.00710711
0.00643699
0.00563845
0.00473545
0.0037981
0.00285739
0.00200831
0.0013421
0.00359995
0.00206944
0.00392911
0.0121733
0.00795112
0.00404861
0.00274992
0.0033678
0.00394182
0.003991
0.0035237
0.00342475
0.00378033
0.00443494
0.00535768
0.00653226
0.00786302
0.00916726
0.0102408
0.0109301
0.011171
0.0110029
0.0105436
0.0099416
0.00934429
0.00886781
0.00856553
0.00841719
0.00834979
0.00826989
0.00810338
0.00781102
0.00737723
0.00680012
0.00608668
0.00525664
0.0043483
0.00333338
0.00196948
0.00167875
0.00537276
0.00237876
0.00384955
0.00981
0.00820772
0.00555484
0.00367009
0.00284134
0.00269
0.00281598
0.00305266
0.00342917
0.00396386
0.00470126
0.00570576
0.00697296
0.00837638
0.00969855
0.0107151
0.0112731
0.0113296
0.0109523
0.0102892
0.00952575
0.0088438
0.00837662
0.00816287
0.00813804
0.00818402
0.00818278
0.00807407
0.00783639
0.00746247
0.0069513
0.00630669
0.00553571
0.00460821
0.0031771
0.00146528
0.0032592
0.00518454
0.00240237
0.00360575
0.00838252
0.00793318
0.00635387
0.00489206
0.00393918
0.00346738
0.00336028
0.00355506
0.00391413
0.00443727
0.00521664
0.00632692
0.00771652
0.0091906
0.0104831
0.011357
0.0116797
0.0114486
0.0107785
0.00986828
0.00895568
0.00826124
0.00791335
0.00787419
0.00798844
0.00810233
0.00810414
0.00798863
0.00775778
0.00740697
0.00692939
0.0063201
0.00556436
0.00452776
0.00260834
0.00171857
0.00371391
0.00483471
0.00236058
0.00328285
0.00755715
0.00765093
0.00672352
0.00572162
0.00496675
0.00452207
0.00436325
0.00440285
0.00462004
0.00510177
0.005974
0.00725827
0.00879641
0.0102991
0.0114581
0.0120507
0.0119966
0.0113615
0.0103303
0.00917819
0.0082141
0.00766929
0.00756167
0.00765912
0.0078084
0.00790513
0.00787701
0.00774278
0.00751025
0.00717022
0.00670158
0.00608649
0.00529496
0.00417913
0.00228418
0.00190464
0.00386881
0.00505079
0.0023131
0.00299323
0.00675902
0.00730414
0.00686728
0.00622498
0.00568493
0.00532568
0.00515004
0.00509847
0.00528603
0.00590003
0.00704112
0.00859428
0.0102555
0.0116542
0.0124859
0.0125963
0.0119992
0.0108626
0.00946787
0.00820106
0.00739255
0.00704519
0.00701076
0.00711253
0.00723811
0.00731488
0.00729039
0.00715622
0.00692378
0.00657621
0.00607869
0.00539264
0.00450041
0.00342171
0.00221342
0.00201835
0.00396377
0.00539946
0.00241917
0.00300409
0.00670806
0.00746288
0.00694946
0.00642959
0.00600375
0.00569675
0.00549774
0.00549238
0.00594842
0.00703235
0.0086481
0.0104644
0.0120586
0.013064
0.0132715
0.0126661
0.0113901
0.00975936
0.00817966
0.0070403
0.0063863
0.00609123
0.00602169
0.00606744
0.00614537
0.00619976
0.0061864
0.0060478
0.00579429
0.00538838
0.00477172
0.00393432
0.00302302
0.0023293
0.002039
0.00238451
0.00431094
0.00537706
0.00249557
0.00271009
0.00281989
0.00416561
0.00489782
0.00512517
0.00512986
0.00508133
0.00517947
0.00581482
0.00716471
0.0090592
0.0110948
0.0128214
0.0138709
0.0140378
0.0132946
0.0118244
0.00989915
0.00806478
0.00664267
0.00570778
0.00518247
0.00493956
0.00484474
0.00480627
0.00477611
0.00473347
0.00466259
0.00449451
0.00420626
0.00376259
0.00314515
0.0024916
0.00207004
0.00201845
0.00230924
0.00304448
0.00493807
0.005686
0.00251731
0.000964724
0.00173925
0.00266735
0.00341029
0.00427451
0.00574994
0.0079185
0.0103198
0.0124932
0.0140973
0.0149053
0.0147805
0.0137463
0.0119218
0.00977058
0.00774747
0.00616364
0.00512052
0.00455697
0.00428147
0.00412771
0.00400657
0.00388211
0.00374576
0.00360133
0.00345333
0.00329203
0.00307107
0.00278361
0.0024463
0.00218166
0.00215566
0.00242482
0.00294798
0.00372997
0.00487442
0.00563433
0.00241763
0.00178727
0.00246755
0.00358732
0.00559016
0.00831245
0.0110343
0.0131412
0.0146502
0.0155414
0.0157504
0.0151671
0.0136938
0.0115689
0.00921086
0.00709155
0.00554441
0.00466398
0.00425757
0.00407225
0.00395885
0.00385693
0.00374854
0.00363399
0.00352008
0.0034132
0.0033144
0.00321503
0.00309692
0.00295752
0.00281399
0.00272548
0.00279582
0.00309592
0.0036003
0.0042036
0.00468166
0.00469435
0.00234659
0.00323896
0.00786334
0.00725047
0.00648162
0.00822285
0.0109535
0.0132542
0.0148028
0.0156119
0.0157958
0.0154359
0.0144974
0.0129471
0.010861
0.00856188
0.0065559
0.00525903
0.00463891
0.00438681
0.00426516
0.00416824
0.00406166
0.00394148
0.00381656
0.00370112
0.00361016
0.00355533
0.00354093
0.00355992
0.0035881
0.00360398
0.00362592
0.00368906
0.00384385
0.00414631
0.00462573
0.00525508
0.0059174
0.00624797
0.00245114
0.00309568
0.00597888
0.00771849
0.00987639
0.010954
0.0120655
0.0127106
0.0128632
0.0126116
0.0120115
0.011075
0.00979618
0.00824935
0.00667426
0.00541171
0.00464523
0.00428505
0.00413731
0.00406395
0.00399961
0.00392007
0.00382157
0.00371112
0.0036025
0.00351453
0.00346887
0.00348587
0.0035787
0.00374613
0.00396196
0.00416132
0.00431939
0.00449183
0.00473404
0.0050955
0.0056124
0.00630374
0.00725892
0.00680293
0.00274357
0.00289435
0.0024807
0.00246793
0.0025392
0.00259758
0.00251785
0.00236434
0.00218433
0.00200157
0.0018251
0.00165865
0.00150826
0.00138463
0.0012985
0.00125188
0.00123555
0.00123585
0.00124282
0.00125227
0.00126298
0.00127552
0.00129157
0.00131346
0.00134355
0.00138347
0.00143326
0.00149111
0.00155397
0.00161871
0.00168344
0.00174841
0.00181415
0.00188211
0.00195684
0.00204255
0.00214064
0.00224835
0.00236685
0.00250961
0.00250103
)
;

boundaryField
{
    floor
    {
        type            compressible::alphatWallFunction;
        Prt             0.85;
        value           nonuniform List<scalar> 
36
(
0.00021988
0.000104467
0.000149996
0.000151193
0.000147588
0.000141528
0.000133379
0.000125201
0.000117619
0.000110739
0.000104528
9.89568e-05
9.39203e-05
8.93038e-05
8.49692e-05
8.07261e-05
7.62619e-05
7.25297e-05
6.49397e-05
6.49389e-05
8.41668e-05
9.64263e-05
0.000106549
0.000127335
0.000166566
0.000160579
0.000219877
0.00023971
0.000229098
0.000219759
0.000104466
0.000219756
0.000186315
0.000266726
0.000232694
0.000265669
)
;
    }
    ceiling
    {
        type            compressible::alphatWallFunction;
        Prt             0.85;
        value           nonuniform List<scalar> 
43
(
0.000391129
0.000338907
0.000337287
0.000346361
0.000353782
0.000343702
0.000324162
0.000301059
0.000277386
0.000254294
0.000232277
0.000212163
0.000195454
0.000183715
0.000177329
0.000175097
0.000175145
0.000176111
0.000177415
0.000178889
0.000180604
0.000182789
0.000185756
0.000189829
0.000195225
0.000201948
0.00020975
0.000218211
0.000226904
0.000235563
0.000244217
0.000252941
0.00026191
0.000271713
0.000282894
0.000295626
0.000309538
0.000324765
0.000342991
0.000341801
0.000368297
0.0003821
0.000248601
)
;
    }
    sWall
    {
        type            compressible::alphatWallFunction;
        Prt             0.85;
        value           nonuniform List<scalar> 9(0.000507615 0.000477872 0.000438166 0.000402216 0.000403562 0.000366722 0.000432102 0.000414385 0.000389378);
    }
    nWall
    {
        type            compressible::alphatWallFunction;
        Prt             0.85;
        value           nonuniform List<scalar> 
14
(
0.000160131
0.000190853
0.000222963
0.00032842
0.000323094
0.000317107
0.000330912
0.000340489
0.000343201
0.000330401
0.000321302
0.000335066
0.000371829
0.000341109
)
;
    }
    sideWalls
    {
        type            empty;
    }
    glass1
    {
        type            compressible::alphatWallFunction;
        Prt             0.85;
        value           nonuniform List<scalar> 9(0.000143932 0.00020914 0.000262699 0.00031331 0.000362386 0.000410011 0.000458022 0.000498879 0.000511237);
    }
    glass2
    {
        type            compressible::alphatWallFunction;
        Prt             0.85;
        value           nonuniform List<scalar> 2(0.000283352 0.000323063);
    }
    sun
    {
        type            compressible::alphatWallFunction;
        Prt             0.85;
        value           nonuniform List<scalar> 
14
(
0.000147966
0.00015765
0.00015709
0.000163755
0.000169834
0.000175334
0.000180435
0.000185338
0.000190259
0.000195474
0.000200435
0.000205137
0.00020976
0.000214719
)
;
    }
    Table_master
    {
        type            compressible::alphatWallFunction;
        Prt             0.85;
        value           nonuniform List<scalar> 9(0.000191152 0.000166971 0.000148019 0.000132984 0.000120874 0.000110996 0.000102864 9.61974e-05 9.09626e-05);
    }
    Table_slave
    {
        type            compressible::alphatWallFunction;
        Prt             0.85;
        value           nonuniform List<scalar> 9(0.000216415 0.000197669 0.000183014 0.000170711 0.00016014 0.000150574 0.000141491 0.000132404 0.00012251);
    }
    inlet
    {
        type            fixedValue;
        value           uniform 1.94e-05;
    }
    outlet
    {
        type            zeroGradient;
    }
}


// ************************************************************************* //
