/*--------------------------------*- C++ -*----------------------------------*\
  =========                 |
  \\      /  F ield         | OpenFOAM: The Open Source CFD Toolbox
   \\    /   O peration     | Website:  https://openfoam.org
    \\  /    A nd           | Version:  6
     \\/     M anipulation  |
\*---------------------------------------------------------------------------*/
FoamFile
{
    version     2.0;
    format      ascii;
    class       volScalarField;
    location    "22900";
    object      nut;
}
// * * * * * * * * * * * * * * * * * * * * * * * * * * * * * * * * * * * * * //

dimensions      [0 2 -1 0 0 0 0];

internalField   nonuniform List<scalar> 
778
(
0.000894293
0.000953038
0.000949569
0.00099079
0.00102857
0.0010629
0.00109485
0.00112566
0.00115668
0.00118965
0.00122108
0.00125092
0.0012803
0.00131189
0.00134485
0.000632416
0.000905163
0.000912506
0.000890434
0.000853514
0.000804198
0.000755039
0.000709725
0.000668859
0.000632217
0.000599575
0.00057026
0.00054356
0.00051864
0.000494388
0.000469029
0.000447976
0.000405514
0.00131076
0.00258099
0.00226496
0.00261422
0.00286765
0.00313637
0.00340447
0.0036516
0.00385058
0.00396645
0.00403453
0.0040064
0.00380637
0.00331115
0.00241813
0.00147234
0.00140376
0.00134368
0.00113076
0.00192626
0.00266974
0.00310884
0.00312932
0.00247004
0.00211238
0.00186463
0.00167667
0.00152715
0.00139952
0.00128668
0.0011817
0.001079
0.000986838
0.000907363
0.00102209
0.000514029
0.001664
0.00360414
0.00267228
0.00382218
0.00427079
0.00465051
0.00499548
0.00529918
0.00555654
0.00575834
0.00595372
0.00615907
0.00634739
0.00645878
0.00638286
0.00584287
0.00427264
0.00164799
0.00142688
0.003053
0.00425981
0.00483011
0.00439177
0.00115896
0.00100776
0.000891175
0.000799964
0.000727375
0.000668773
0.000620961
0.000582063
0.000551731
0.000606674
0.000713658
0.00113017
0.000584681
0.0020052
0.00485795
0.00255732
0.00429824
0.00496246
0.00531804
0.00557962
0.00577328
0.00591795
0.0060353
0.00620184
0.00648282
0.00689235
0.00740681
0.00792342
0.00817667
0.00767565
0.00572315
0.00164152
0.00380501
0.00565863
0.00659871
0.00682954
0.00582908
0.00131996
0.00120051
0.00110808
0.00103127
0.000965813
0.000907026
0.000851595
0.000796532
0.00073705
0.000688746
0.000714065
0.0012238
0.00064358
0.00234192
0.00643244
0.00258013
0.00408668
0.00510798
0.00541129
0.00552167
0.00552634
0.00547195
0.00542386
0.00549383
0.00576693
0.00626744
0.00697566
0.00779687
0.00855321
0.00903321
0.00902759
0.00810276
0.00824607
0.00843518
0.00846097
0.00828805
0.00775663
0.00617193
0.00533102
0.00475521
0.00428683
0.00382809
0.00338396
0.00294946
0.00251544
0.00206945
0.00158958
0.00121295
0.00121206
0.00095871
0.000767473
0.00101686
0.000969856
0.00267353
0.00819552
0.00303749
0.0034467
0.00489476
0.00523125
0.00520473
0.00501787
0.00475056
0.00453013
0.00452552
0.00481157
0.00538175
0.00620268
0.00716369
0.00812376
0.00894205
0.00946534
0.00956114
0.00946564
0.00929765
0.00905898
0.00875223
0.00836209
0.00779316
0.0072454
0.00674828
0.00626719
0.00574834
0.0051946
0.00460325
0.0039691
0.00328817
0.00256571
0.00191158
0.00143532
0.00111391
0.00125639
0.00218897
0.00115866
0.00301206
0.00982704
0.00404789
0.00282383
0.0043987
0.00494871
0.0048879
0.00458509
0.00414572
0.00375918
0.00374827
0.00410927
0.00476159
0.00567855
0.00672276
0.00775678
0.0086476
0.00928645
0.00958092
0.00955877
0.00934889
0.00903063
0.00866615
0.00830255
0.00795096
0.00762846
0.00732562
0.00700194
0.00661142
0.00614161
0.00558541
0.00494011
0.00420838
0.00340915
0.00262795
0.00189877
0.00139757
0.00125483
0.00222293
0.00136816
0.00330341
0.0110642
0.00552011
0.00268849
0.00348527
0.00438787
0.00451346
0.00426427
0.00374568
0.00321893
0.00333864
0.00381593
0.00454497
0.00548968
0.00657339
0.00765556
0.0085797
0.00922275
0.00951559
0.00947835
0.00920754
0.00880763
0.00837743
0.00799587
0.00770173
0.0074916
0.00732779
0.00714942
0.00690146
0.00655445
0.00609462
0.00551926
0.00483428
0.00406065
0.00325672
0.00244086
0.00170668
0.00113526
0.0032722
0.00180166
0.00339324
0.0104838
0.00683639
0.00347609
0.00236264
0.00289707
0.00338963
0.00343052
0.00302937
0.00294472
0.00325089
0.00381176
0.00459939
0.00560059
0.00673592
0.00785123
0.00877207
0.00936553
0.00957473
0.00943238
0.0090396
0.00852417
0.00801289
0.00760504
0.00734612
0.00721899
0.00716146
0.00709301
0.00695066
0.00670021
0.00632804
0.00583283
0.00522159
0.00451169
0.00373308
0.00285776
0.00167845
0.00139355
0.00511889
0.00202496
0.00332463
0.00845873
0.00706621
0.00477484
0.00315172
0.00244052
0.00231253
0.00242189
0.00262543
0.00294985
0.00340942
0.00404006
0.00489601
0.00597509
0.00717215
0.0083033
0.00917609
0.00965737
0.00970803
0.00938529
0.00881704
0.00816341
0.00758048
0.00718123
0.00699817
0.00697673
0.00701657
0.00701598
0.00692414
0.00672156
0.00640168
0.00596445
0.00541441
0.00475636
0.00396348
0.00284313
0.00135304
0.00227385
0.00517562
0.00208147
0.00311446
0.00723205
0.00683544
0.00546766
0.00420567
0.00338492
0.00297961
0.00288854
0.00305728
0.00336717
0.00381601
0.00448085
0.00542558
0.0066088
0.00786736
0.00897508
0.00972731
0.0100068
0.00980911
0.00923291
0.00845152
0.00767025
0.00707743
0.00677967
0.00674487
0.00684268
0.00694194
0.00694368
0.00684707
0.00665078
0.0063508
0.00594372
0.00542532
0.00476635
0.00381411
0.00234884
0.00141534
0.00276929
0.00545596
0.00209302
0.00283623
0.00652178
0.00659581
0.00579049
0.00492383
0.00427213
0.00388881
0.00375167
0.00378702
0.00397401
0.00438512
0.00512695
0.00621931
0.0075309
0.00881764
0.00981522
0.0103286
0.0102837
0.00973576
0.00884626
0.0078571
0.00703211
0.00656464
0.00646926
0.00655046
0.00668189
0.00676831
0.00674497
0.00663267
0.006433
0.0061396
0.00574297
0.00521871
0.00445507
0.0031141
0.0016411
0.00175428
0.00322195
0.00530999
0.00205461
0.00258663
0.00583453
0.00629942
0.00591773
0.00536095
0.00489373
0.0045833
0.00443201
0.00438694
0.00454515
0.00506572
0.00603503
0.00735823
0.00878037
0.00998597
0.0107097
0.0108112
0.0102966
0.00931293
0.00810922
0.00702425
0.00632577
0.00601341
0.00597074
0.00606116
0.00618745
0.0062696
0.00624858
0.00613609
0.00593234
0.00563027
0.00521265
0.00461141
0.00357309
0.00205875
0.00151595
0.00220735
0.00344778
0.00458752
0.00198096
0.00259433
0.00579118
0.00643628
0.00599001
0.00553927
0.00517041
0.00490458
0.00473224
0.0047233
0.00510681
0.00602561
0.00740081
0.00895573
0.0103332
0.011215
0.0114106
0.010896
0.0097915
0.00838177
0.00701902
0.00602782
0.00543418
0.00514724
0.00507738
0.00514186
0.00525826
0.00534487
0.00532774
0.00520433
0.00497449
0.0046383
0.00418997
0.00357918
0.00267254
0.00173125
0.00164496
0.00245609
0.00355645
0.00435534
0.00192603
0.00234169
0.00243571
0.00359193
0.00421876
0.00441199
0.00441431
0.00437089
0.00444976
0.0049848
0.00612872
0.00774049
0.00948389
0.0109811
0.0119144
0.0120928
0.0114744
0.0102097
0.00854351
0.00695289
0.00570161
0.00484963
0.00435021
0.0041143
0.0040417
0.00405994
0.0041115
0.00413365
0.00406054
0.00387478
0.00359
0.00323657
0.00285662
0.00247827
0.00209312
0.00176129
0.00182285
0.00257308
0.00373804
0.00486616
0.00201986
0.000807478
0.0014654
0.0022624
0.00290452
0.00364667
0.00489952
0.00674258
0.00878983
0.0106581
0.0120619
0.0128053
0.012757
0.0119132
0.0103588
0.00850013
0.00673064
0.00531519
0.00435376
0.00381351
0.00354007
0.00340048
0.00332451
0.00327607
0.00322559
0.00313881
0.00298772
0.00277294
0.00253264
0.00231702
0.00216352
0.00208003
0.00205522
0.00209499
0.00229317
0.00291121
0.00432673
0.00501162
0.00211061
0.00149733
0.00207908
0.00303721
0.00474699
0.00706514
0.00938925
0.0111924
0.0124994
0.0132992
0.0135377
0.0131149
0.0119268
0.0101522
0.00812873
0.00625416
0.0048272
0.00396509
0.00352654
0.00330748
0.00318855
0.00311893
0.00307401
0.00303481
0.00298127
0.00289554
0.002775
0.00264309
0.00253349
0.00247376
0.0024738
0.00252759
0.00262915
0.00279476
0.00308711
0.00366927
0.00514253
0.00542355
0.00215201
0.00275697
0.00666792
0.00612872
0.00548533
0.00698304
0.00932192
0.0112995
0.0126381
0.0133488
0.0135332
0.0132791
0.0125489
0.0112999
0.00958081
0.0076211
0.00579778
0.00451211
0.00380857
0.00346068
0.00328152
0.00318929
0.003153
0.00315505
0.00317733
0.00319912
0.00320143
0.00317552
0.00313121
0.00309416
0.00307946
0.00309515
0.00314255
0.00321927
0.00332806
0.00349004
0.00375926
0.00425281
0.00536633
0.00580629
0.00210334
0.00263889
0.00510068
0.00658773
0.00841265
0.00934891
0.0103211
0.0108922
0.011036
0.0108314
0.010337
0.00957821
0.00856578
0.00734611
0.00605868
0.00492603
0.00408774
0.00354651
0.0032192
0.00302424
0.00292187
0.00289535
0.00293259
0.00301731
0.00312695
0.00323518
0.0033188
0.00336745
0.00339305
0.00342114
0.00346347
0.00352561
0.00360934
0.00371233
0.00383609
0.00399102
0.00418739
0.00445823
0.00511766
0.00604257
0.00207125
0.00247435
0.00211981
0.00210955
0.00217108
0.00222214
0.00215645
0.00202848
0.00187968
0.00173166
0.00159222
0.00146247
0.00134296
0.00123754
0.00115347
0.00109723
0.00107063
0.00106254
0.00106595
0.00107773
0.00109558
0.00111725
0.00114067
0.00116421
0.00118689
0.00120841
0.0012292
0.00125019
0.00127252
0.00129736
0.00132571
0.00135817
0.00139534
0.00143894
0.00149257
0.00156249
0.00165673
0.00178009
0.0019282
0.00208559
0.00196024
)
;

boundaryField
{
    floor
    {
        type            nutkWallFunction;
        Cmu             0.09;
        kappa           0.41;
        E               9.8;
        value           nonuniform List<scalar> 
36
(
0.000160575
7.6388e-05
0.000109497
0.000110371
0.000107743
0.000103331
9.74017e-05
9.14485e-05
8.59202e-05
8.08982e-05
7.6364e-05
7.2298e-05
6.86234e-05
6.52564e-05
6.20954e-05
5.90011e-05
5.57452e-05
5.30254e-05
4.74893e-05
4.74892e-05
6.15081e-05
7.04334e-05
7.77732e-05
9.29573e-05
0.000122682
0.000117157
0.000160575
0.000175003
0.00016726
0.00016044
7.6388e-05
0.00016044
0.000135988
0.000194659
0.000169873
0.000193939
)
;
    }
    ceiling
    {
        type            nutkWallFunction;
        Cmu             0.09;
        kappa           0.41;
        E               9.8;
        value           nonuniform List<scalar> 
43
(
0.000284389
0.000246339
0.000245231
0.000251886
0.000257399
0.000250328
0.000236468
0.000220223
0.000203921
0.000188424
0.000173873
0.000160349
0.000148314
0.000138635
0.000132114
0.000129007
0.000128059
0.00012845
0.000129819
0.000131896
0.000134419
0.000137146
0.000139883
0.000142516
0.000145011
0.000147413
0.000149833
0.000152398
0.000155241
0.00015848
0.000162177
0.000166394
0.000171308
0.000177305
0.000185064
0.000195463
0.000209019
0.000225217
0.000242325
0.000228851
0.000270424
0.000280471
0.000177606
)
;
    }
    sWall
    {
        type            nutkWallFunction;
        Cmu             0.09;
        kappa           0.41;
        E               9.8;
        value           nonuniform List<scalar> 9(0.000373887 0.000352084 0.000322987 0.000296634 0.000297447 0.000270513 0.000314338 0.000301905 0.00028449);
    }
    nWall
    {
        type            nutkWallFunction;
        Cmu             0.09;
        kappa           0.41;
        E               9.8;
        value           nonuniform List<scalar> 
14
(
0.000117164
0.00013923
0.000163231
0.000242275
0.000243478
0.00023925
0.000231213
0.000225326
0.000235918
0.000245458
0.000249919
0.000244277
0.000240788
0.000228887
)
;
    }
    sideWalls
    {
        type            empty;
    }
    glass1
    {
        type            nutkWallFunction;
        Cmu             0.09;
        kappa           0.41;
        E               9.8;
        value           nonuniform List<scalar> 9(0.000108246 0.00015688 0.000196733 0.000234344 0.000270785 0.000306132 0.000341746 0.000372066 0.000381368);
    }
    glass2
    {
        type            nutkWallFunction;
        Cmu             0.09;
        kappa           0.41;
        E               9.8;
        value           nonuniform List<scalar> 2(0.000211767 0.000236265);
    }
    sun
    {
        type            nutkWallFunction;
        Cmu             0.09;
        kappa           0.41;
        E               9.8;
        value           nonuniform List<scalar> 
14
(
0.000108205
0.000115178
0.000114767
0.000119633
0.000124073
0.00012809
0.000131817
0.000135398
0.000138992
0.0001428
0.00014642
0.000149847
0.000153212
0.000156821
)
;
    }
    Table_master
    {
        type            nutkWallFunction;
        Cmu             0.09;
        kappa           0.41;
        E               9.8;
        value           nonuniform List<scalar> 9(0.000139246 0.000121624 0.000107829 9.68901e-05 8.808e-05 8.08915e-05 7.49705e-05 7.01128e-05 6.62975e-05);
    }
    Table_slave
    {
        type            nutkWallFunction;
        Cmu             0.09;
        kappa           0.41;
        E               9.8;
        value           nonuniform List<scalar> 9(0.000157728 0.000144042 0.000133348 0.000124383 0.000116683 0.000109716 0.000103099 9.64757e-05 8.92601e-05);
    }
    inlet
    {
        type            calculated;
        value           uniform 0.000167705;
    }
    outlet
    {
        type            calculated;
        value           nonuniform List<scalar> 2(0.00275697 0.00666792);
    }
}


// ************************************************************************* //
