/*--------------------------------*- C++ -*----------------------------------*\
  =========                 |
  \\      /  F ield         | OpenFOAM: The Open Source CFD Toolbox
   \\    /   O peration     | Website:  https://openfoam.org
    \\  /    A nd           | Version:  6
     \\/     M anipulation  |
\*---------------------------------------------------------------------------*/
FoamFile
{
    version     2.0;
    format      ascii;
    class       volScalarField;
    location    "360";
    object      alphat;
}
// * * * * * * * * * * * * * * * * * * * * * * * * * * * * * * * * * * * * * //

dimensions      [1 -1 -1 0 0 0 0];

internalField   nonuniform List<scalar> 
458
(
0.00134722
0.00147468
0.00151576
0.00159244
0.00166497
0.00173668
0.0018133
0.00188108
0.0019315
0.00195335
0.00193479
0.00185515
0.0016361
0.00138478
0.00117554
0.000618888
0.000726349
0.000825864
0.000863303
0.00084929
0.000795983
0.000737676
0.000685405
0.000639925
0.000600268
0.000565524
0.000535057
0.0005079
0.000483027
0.000459306
0.000435322
0.000419431
0.000384591
0.00178915
0.00414256
0.00387466
0.0044524
0.00503947
0.00560935
0.00602691
0.00645904
0.00688545
0.00725391
0.00751349
0.00760695
0.00736263
0.00655345
0.00423845
0.00146534
0.00126869
0.00106366
0.00060752
0.00155876
0.00232442
0.00289301
0.00301672
0.0021372
0.00179134
0.00156412
0.00139904
0.00127353
0.00117428
0.00108703
0.00100398
0.000919089
0.000841784
0.000776713
0.000935288
0.000494512
0.00215172
0.00552133
0.00462889
0.00548758
0.00583377
0.00608005
0.00628637
0.0065775
0.00696154
0.00742513
0.00792954
0.00837484
0.00855744
0.00816152
0.0070167
0.00515861
0.00376304
0.00119223
0.00087027
0.00169676
0.00260648
0.00346057
0.00359459
0.00105266
0.000918237
0.000807234
0.000718006
0.000646496
0.000588904
0.000542504
0.000505447
0.00047747
0.000535732
0.000630615
0.00109943
0.000579406
0.00249527
0.006918
0.00449477
0.00554758
0.00561579
0.0055667
0.00563529
0.00585589
0.0062279
0.00676534
0.0074292
0.00804419
0.0083753
0.00827273
0.00776896
0.00677048
0.00533063
0.00276363
0.00130959
0.00188808
0.00281484
0.00389529
0.00473582
0.00463897
0.0011784
0.00107774
0.00100828
0.000955435
0.000909146
0.000864809
0.000821922
0.000776386
0.000723254
0.00067317
0.000678459
0.00131897
0.000658212
0.0028423
0.00878283
0.00462546
0.00527046
0.00531609
0.00511243
0.00516078
0.00538762
0.0057705
0.00635603
0.00709699
0.00771417
0.00800055
0.00794944
0.0076888
0.00721452
0.0063462
0.0049077
0.00460548
0.00509673
0.00578218
0.00638969
0.00669906
0.00654991
0.00546964
0.00492303
0.00461483
0.00438667
0.00415313
0.00382383
0.00336472
0.00281108
0.00220937
0.00165072
0.00123566
0.001254
0.00109955
0.000877963
0.000922458
0.000997017
0.00321257
0.0108914
0.00608082
0.00495896
0.00519726
0.00509858
0.0050486
0.00527012
0.00565354
0.00625523
0.00698308
0.00757821
0.00779009
0.00766902
0.00749019
0.00738909
0.00722601
0.00691389
0.0072055
0.00780742
0.00818468
0.00825233
0.00803217
0.00758463
0.0069753
0.00648736
0.00611428
0.00579065
0.00547563
0.00513587
0.00468259
0.00410012
0.0034006
0.00265363
0.00200987
0.00147936
0.00127414
0.0011603
0.00146749
0.00103636
0.00357715
0.0124561
0.00881436
0.00582509
0.00526168
0.00535989
0.00531464
0.00541075
0.00574768
0.00634572
0.00708056
0.00765516
0.00778547
0.00761131
0.00762591
0.00802834
0.0083957
0.00867098
0.00912822
0.00942801
0.00934036
0.00892998
0.0083054
0.00758108
0.00688008
0.00632907
0.00591869
0.00558626
0.005296
0.00504075
0.0048125
0.004458
0.00393493
0.00328806
0.00266773
0.00211071
0.00178985
0.0016995
0.00164698
0.0012445
0.00366636
0.0114418
0.00961632
0.00788664
0.00683843
0.00624118
0.00574524
0.00565874
0.00597717
0.00660727
0.00736186
0.00789726
0.00792272
0.00782212
0.00836437
0.00897753
0.00932424
0.00958101
0.00976206
0.00963399
0.00911819
0.00833296
0.00742825
0.00655539
0.00584754
0.00535135
0.00500752
0.00475249
0.00456255
0.0044388
0.00438794
0.00437466
0.00415089
0.0037536
0.00341077
0.00326488
0.00344372
0.00379275
0.00468254
0.00191584
0.00359234
0.00434447
0.00487623
0.00508428
0.00505331
0.00502237
0.00519498
0.00562745
0.00625987
0.00704202
0.00780971
0.00822475
0.00811571
0.00834945
0.00884276
0.00910456
0.00920147
0.00919865
0.00899449
0.00847881
0.0076645
0.00671761
0.00582126
0.00510548
0.00459989
0.00425016
0.00398662
0.00376923
0.00358312
0.00342188
0.00327869
0.00314435
0.00303664
0.00295447
0.00291576
0.00290575
0.00285162
0.00270336
0.00251275
0.00175944
0.00182726
0.00309701
0.00419296
0.00514688
0.00603083
0.00672384
0.00727378
0.00782431
0.00824077
0.00849652
0.00833138
0.00831261
0.00819166
0.00801821
0.00783839
0.00757446
0.00713374
0.00650562
0.00577977
0.00509448
0.00455263
0.00416077
0.00387473
0.00364658
0.00344715
0.00326774
0.0031127
0.00299275
0.00292042
0.00289708
0.00289799
0.00291054
0.00291582
0.00287368
0.00272988
0.00247026
0.00213525
0.00141452
0.00256514
0.00517393
0.00661895
0.00757868
0.00788676
0.00742093
0.00718897
0.00707939
0.00680392
0.00675065
0.00664104
0.0064281
0.00620905
0.00602958
0.00584252
0.00558973
0.00524775
0.0048439
0.00443119
0.00408008
0.0038071
0.00359636
0.0034281
0.00328985
0.00317712
0.00308947
0.00302569
0.00297965
0.00297135
0.00300109
0.00306049
0.00313522
0.00320188
0.00323982
0.00320298
0.00315254
0.00273035
0.00143322
0.00266837
0.00272478
0.00277938
0.0030968
0.00279749
0.00231626
0.00188594
0.00168821
0.00153623
0.00143065
0.0013561
0.00128657
0.00123184
0.0011947
0.00116894
0.00114669
0.00112218
0.00109263
0.00105945
0.00102804
0.00100482
0.000988899
0.000979853
0.000977124
0.000980311
0.000989411
0.00100475
0.00102696
0.00105707
0.00109698
0.00114525
0.00120221
0.00126771
0.00134181
0.001424
0.00152828
0.00156834
0.00153498
0.00142924
0.00131927
)
;

boundaryField
{
    floor
    {
        type            compressible::alphatWallFunction;
        Prt             0.85;
        value           nonuniform List<scalar> 
36
(
0.00016669
8.7129e-05
0.000102992
0.000117432
0.000122811
0.000120802
0.000113121
0.00010465
9.69862e-05
9.0261e-05
8.43491e-05
7.91302e-05
7.45211e-05
7.03854e-05
6.6573e-05
6.29142e-05
5.91905e-05
5.67094e-05
5.12266e-05
5.12259e-05
6.83373e-05
8.12217e-05
9.29745e-05
0.000124923
0.000131272
0.000141822
0.000166688
0.000206231
0.00017951
0.000151141
8.71279e-05
0.000151139
8.54312e-05
0.000168995
0.000123804
0.000185106
)
;
    }
    ceiling
    {
        type            compressible::alphatWallFunction;
        Prt             0.85;
        value           nonuniform List<scalar> 
43
(
0.000362594
0.00036971
0.000376585
0.000416372
0.000379008
0.000317981
0.000262242
0.000236178
0.000215914
0.000201704
0.000191599
0.000182117
0.000174613
0.000169498
0.00016594
0.00016286
0.000159459
0.000155346
0.000150712
0.000146311
0.000143047
0.000140803
0.000139526
0.000139141
0.000139591
0.000140875
0.000143036
0.000146157
0.000150378
0.000155951
0.000162659
0.000170535
0.000179538
0.00018966
0.000200815
0.000214864
0.000220233
0.000215763
0.000201526
0.000186594
0.000477806
0.000569004
0.000349425
)
;
    }
    sWall
    {
        type            compressible::alphatWallFunction;
        Prt             0.85;
        value           uniform 0.000361296;
    }
    nWall
    {
        type            compressible::alphatWallFunction;
        Prt             0.85;
        value           nonuniform List<scalar> 6(0.000141583 0.000147106 0.000175968 0.000199173 0.0002017 0.000186231);
    }
    sideWalls
    {
        type            empty;
    }
    glass1
    {
        type            compressible::alphatWallFunction;
        Prt             0.85;
        value           nonuniform List<scalar> 9(0.000185138 0.000243427 0.000290199 0.000333834 0.000377336 0.000423189 0.000467846 0.000478851 0.000470108);
    }
    glass2
    {
        type            compressible::alphatWallFunction;
        Prt             0.85;
        value           nonuniform List<scalar> 2(0.000263843 0.000243487);
    }
    sun
    {
        type            compressible::alphatWallFunction;
        Prt             0.85;
        value           nonuniform List<scalar> 
14
(
0.000190247
0.000207487
0.000213012
0.000223281
0.000232946
0.000242454
0.000252567
0.000261473
0.000268076
0.000270931
0.000268505
0.000258069
0.000229105
0.000195333
)
;
    }
    Table_master
    {
        type            compressible::alphatWallFunction;
        Prt             0.85;
        value           nonuniform List<scalar> 9(0.000149812 0.000130845 0.000114936 0.000101957 9.14157e-05 8.28222e-05 7.58229e-05 7.01794e-05 6.58844e-05);
    }
    Table_slave
    {
        type            compressible::alphatWallFunction;
        Prt             0.85;
        value           nonuniform List<scalar> 9(0.000167304 0.000153323 0.000143586 0.000136128 0.000129554 0.00012322 0.000117057 0.000110471 0.000102728);
    }
    inlet
    {
        type            fixedValue;
        value           uniform 1.94e-05;
    }
    outlet
    {
        type            zeroGradient;
    }
}


// ************************************************************************* //
