/*--------------------------------*- C++ -*----------------------------------*\
  =========                 |
  \\      /  F ield         | OpenFOAM: The Open Source CFD Toolbox
   \\    /   O peration     | Website:  https://openfoam.org
    \\  /    A nd           | Version:  6
     \\/     M anipulation  |
\*---------------------------------------------------------------------------*/
FoamFile
{
    version     2.0;
    format      ascii;
    class       surfaceScalarField;
    location    "360";
    object      phi;
}
// * * * * * * * * * * * * * * * * * * * * * * * * * * * * * * * * * * * * * //

dimensions      [1 0 -1 0 0 0 0];

internalField   nonuniform List<scalar> 
850
(
-0.00321013
0.00327395
-0.00441377
0.00120364
-0.005324
0.000910228
-0.00598832
0.000664313
-0.00635788
0.00036956
-0.00638205
2.41665e-05
-0.00600204
-0.000380012
-0.00518273
-0.000819309
-0.0039665
-0.00121623
-0.00248452
-0.00148199
-0.00093864
-0.00154588
0.000383248
-0.00132189
0.00104514
-0.000661898
0.00105102
-5.8825e-06
0.00105408
-0.00101896
0.00102343
-0.000720033
-0.00029893
1.88952e-05
-0.000738936
0.000704763
-0.000685876
0.00121319
-0.000508436
0.00149026
-0.000277081
0.00160565
-0.000115397
0.0016615
-5.58552e-05
0.00169293
-3.14429e-05
0.00170752
-1.45905e-05
0.00170944
-1.93221e-06
0.00169965
9.78128e-06
0.00167107
2.85644e-05
0.00160186
6.92035e-05
0.00145496
0.000146894
0.00121749
0.000237458
0.000908
0.000309478
0.000913841
-0.0023244
0.00577102
-0.00350529
0.00238453
-0.00446497
0.0018699
-0.0051531
0.00135244
-0.00555243
0.000768889
-0.00561936
9.11018e-05
-0.00530163
-0.000697747
-0.00457741
-0.00154353
-0.0035199
-0.00227374
-0.00228974
-0.00271215
-0.00108442
-0.00275121
-6.1345e-05
-0.00234497
0.0006979
-0.00142115
0.0012141
-0.000522082
0.0020388
0.00022937
0.00175047
0.000293433
0.00121292
0.000543253
0.00122918
3.15862e-05
0.00100541
0.000455886
-0.000723237
0.000865323
-0.00114838
0.00122383
-0.00104439
0.00150853
-0.000793149
0.00157416
-0.000342715
0.00158368
-0.000124929
0.00159482
-6.70002e-05
0.00160407
-4.06964e-05
0.00160932
-1.98555e-05
0.00161145
-4.06518e-06
0.00161041
1.08086e-05
0.00160325
3.57175e-05
0.00156127
0.000111166
0.00138642
0.00032174
0.0010868
0.000537065
0.000719732
0.000676534
0.00164864
-0.00164596
0.00768203
-0.00266976
0.00340833
-0.00355882
0.00275897
-0.00419311
0.00198673
-0.0045877
0.00116347
-0.0046925
0.000195907
-0.00442477
-0.000965486
-0.00376645
-0.00220186
-0.00283613
-0.00320406
-0.00180703
-0.00374125
-0.000844409
-0.00371383
-5.66837e-05
-0.0031327
0.000602396
-0.00208023
0.00112367
-0.00104336
0.00152269
-0.000169659
0.00142646
0.000389655
0.000989514
0.000980198
0.00223364
0.00152068
-0.000497358
0.00171109
-0.00091366
0.00164999
-0.00108728
0.00170019
-0.0010946
0.00193199
-0.00102496
0.00158943
0.00146464
0.00139779
0.00135724
0.00133753
0.00133361
0.00134456
0.00138042
0.00149173
0.00123004
0.000583422
0.000914446
0.00085265
0.00053677
0.0010542
0.00220805
-0.0011469
0.00917326
-0.00195508
0.00421651
-0.00260326
0.00340715
-0.00308034
0.0024638
-0.00340587
0.00148901
-0.00351506
0.00030509
-0.00326256
-0.00121798
-0.00265098
-0.00281344
-0.00186672
-0.00398832
-0.0010668
-0.00454118
-0.000362427
-0.0044182
0.000196754
-0.00369188
0.000682787
-0.00256627
0.00106408
-0.00142465
0.00134044
-0.000446024
0.00143162
0.000298469
0.00149652
0.000915291
0.00247902
0.00125114
0.00215464
0.000340844
0.00200029
-0.000343015
0.00193164
-0.00084502
0.00183765
-0.000993294
0.00171905
-0.000976014
0.00149344
-0.000799359
0.00186809
-0.000374811
0.00206573
-0.000197802
0.00220156
-0.000135998
0.00229571
-9.43109e-05
0.00233697
-4.14239e-05
0.00230452
3.22846e-05
0.00217335
0.000130997
0.00190794
0.000265244
0.00144601
0.000461767
0.00120779
0.000821626
0.00083323
0.0012272
0.000316053
0.00157136
0.00255312
-0.000777604
0.010363
-0.00137291
0.00481181
-0.00161302
0.00364726
-0.00182987
0.00268064
-0.00199813
0.00165726
-0.00203708
0.000344042
-0.00172864
-0.00152642
-0.00117747
-0.00336461
-0.000603032
-0.00456275
-9.9807e-05
-0.00504441
0.000293139
-0.00481115
0.000586083
-0.00398483
0.000835192
-0.00281539
0.00103039
-0.00161985
0.0011972
-0.000612838
0.00136732
0.000128335
0.0016498
0.000632811
0.00210382
0.000797113
0.00213698
0.000307676
0.00207557
-0.000281616
0.0018792
-0.000648648
0.00167526
-0.000789367
0.00148375
-0.000784517
0.0013458
-0.000661413
0.00141256
-0.000441586
0.00150552
-0.000290774
0.00158941
-0.000219901
0.0016658
-0.000170713
0.00172572
-0.000101362
0.00174626
1.17277e-05
0.00170441
0.000172835
0.00159019
0.000379448
0.00141181
0.000640134
0.00124039
0.000993036
0.00105297
0.0014146
0.000661446
0.00196288
0.000892995
0.00232156
-0.00134834
0.00226704
-0.00201761
0.000693377
-0.00193451
-0.000638701
0.011471
-0.00101073
0.00518383
-0.000659648
0.00329618
-0.00051525
0.00253624
-0.000476059
0.00161807
-0.000266378
0.000134359
0.000183956
-0.00197676
0.00059995
-0.00378061
0.000885621
-0.00484842
0.00102289
-0.00518167
0.0010479
-0.00483617
0.0010095
-0.00394644
0.000948785
-0.00275468
0.000891517
-0.00156259
0.000884203
-0.000605532
0.00097105
4.14813e-05
0.00117884
0.000425012
0.00147747
0.000498474
0.00159674
0.000188405
0.00150846
-0.000193341
0.00131745
-0.000457649
0.00111014
-0.000582064
0.0009236
-0.000597992
0.000796038
-0.000533864
0.000775743
-0.000421305
0.00082352
-0.000338565
0.000901428
-0.000297823
0.000994991
-0.000264291
0.00109528
-0.000201671
0.00118709
-8.00964e-05
0.00124876
0.000111153
0.00127706
0.000351129
0.00128584
0.000631336
0.0013187
0.000960168
0.00143112
0.00130216
0.00165579
0.0017382
0.00205829
0.00191904
0.00242013
0.00190519
0.00189694
0.00121655
3.49718e-05
-0.000747053
0.0127378
-0.000565481
0.00500226
0.000550454
0.00218024
0.00100968
0.00207701
0.00137227
0.00125548
0.00192792
-0.000421295
0.00239527
-0.00244411
0.00257311
-0.00395844
0.00249407
-0.00476939
0.00220361
-0.00489121
0.00178645
-0.00441901
0.00132604
-0.00348604
0.00088927
-0.00231792
0.000540292
-0.00121363
0.000343407
-0.000408656
0.000331925
5.29548e-05
0.000472789
0.00028414
0.000669476
0.000301779
0.000746069
0.000111803
0.00067619
-0.000123471
0.000523513
-0.000304984
0.000345411
-0.000403975
0.000181919
-0.000434513
6.79592e-05
-0.000419919
3.22791e-05
-0.00038564
6.07103e-05
-0.000367013
0.000127117
-0.000364247
0.00021918
-0.000356371
0.000337289
-0.000319797
0.000485781
-0.000228606
0.000648231
-5.13132e-05
0.000809407
0.000189936
0.000981236
0.00045949
0.00119712
0.00074427
0.00149199
0.00100728
0.00192765
0.00130252
0.00252077
0.00132591
0.00340003
0.00102592
0.00366014
0.00095642
0.00377075
0.00295576
0.0103614
0.00367335
0.00428467
0.00354205
0.00231154
0.00365288
0.00196617
0.00414987
0.000758488
0.00477391
-0.00104535
0.00496388
-0.00263407
0.00469514
-0.0036897
0.00406102
-0.00413526
0.00319256
-0.00402275
0.00223097
-0.00345743
0.00129
-0.00254508
0.000467115
-0.00149504
-0.000109523
-0.000637001
-0.000383634
-0.000134555
-0.000426732
9.60429e-05
-0.000336968
0.000194366
-0.000219371
0.000184171
-0.000181222
7.36431e-05
-0.00023922
-6.54863e-05
-0.000360803
-0.000183415
-0.000504488
-0.000260304
-0.000636316
-0.000302702
-0.000731924
-0.000324326
-0.000778707
-0.000338875
-0.000787695
-0.000358041
-0.000773762
-0.000378197
-0.000742212
-0.000387939
-0.000686742
-0.000375284
-0.00058782
-0.000327546
-0.00041109
-0.00022806
-0.000174905
-4.62663e-05
9.14534e-05
0.000193114
0.00039421
0.000441497
0.000718384
0.000683087
0.00110021
0.000920674
0.00150217
0.000923933
0.00185569
0.000672385
0.00106293
0.00174916
0.00515642
0.0110053
0.0152901
0.0126777
0.00492394
0.0113268
0.00331712
0.0103704
0.00171483
0.0093099
1.51889e-05
0.00799045
-0.00131462
0.00652226
-0.00222149
0.00496285
-0.00257584
0.00337559
-0.0024355
0.0018722
-0.00195404
0.000514965
-0.00118787
-0.000473535
-0.000506556
-0.000998885
-0.000111665
-0.00118754
5.40904e-05
-0.00121259
0.000121078
-0.00116213
0.000143894
-0.00110373
0.00012576
-0.00109421
6.40999e-05
-0.0011441
-1.56089e-05
-0.0012368
-9.07296e-05
-0.00134743
-0.000149688
-0.0014562
-0.000193947
-0.00155272
-0.000227826
-0.00163648
-0.000255131
-0.00171736
-0.000277186
-0.00180651
-0.000289057
-0.00191337
-0.000281099
-0.00204774
-0.000240933
-0.00222195
-0.00015335
-0.00245297
2.93728e-06
-0.00272898
0.000229728
-0.00308139
0.000545511
-0.00361256
0.000972653
-0.00443233
0.00150284
-0.00559878
0.00208711
-0.00722243
0.00254757
-0.00908414
0.00253408
-0.00846087
0.00112587
-0.00294681
0.00922493
0.00725367
0.00733664
0.00520543
0.00674639
0.00230511
0.00620795
0.000553665
0.00535275
-0.000459387
0.00423019
-0.00109891
0.00286131
-0.00120696
0.0013408
-0.000914999
-9.91511e-05
-0.000514119
-0.00116596
-0.00012108
-0.00171532
4.27875e-05
-0.001929
0.000101999
-0.00198527
0.000110352
-0.00197351
0.000109296
-0.00193538
0.000105749
-0.00190124
9.16108e-05
-0.00189743
6.02698e-05
-0.00192985
1.67943e-05
-0.00198839
-3.22022e-05
-0.00206203
-7.60687e-05
-0.002146
-0.00011
-0.00224047
-0.00013337
-0.00234905
-0.000146567
-0.00247634
-0.000149921
-0.00262355
-0.000141862
-0.00278653
-0.000118139
-0.00295498
-7.24946e-05
-0.00310762
-7.30534e-07
-0.00322877
0.000124078
-0.00332769
0.000328629
-0.00341996
0.000637761
-0.00352068
0.00107336
-0.00364063
0.00162277
-0.00373177
0.00217823
-0.00369466
0.00251045
-0.00331686
0.00215627
-0.00190845
-0.000282552
-0.00476315
-0.000683392
0.0080017
0.000965202
0.00355686
0.00144696
0.00182338
0.00140518
0.00059545
0.00100761
-6.18217e-05
0.000211082
-0.000302396
-0.00081387
-0.000182045
-0.00173919
1.02946e-05
-0.00236014
0.00010681
-0.00262875
0.000147517
-0.00271213
0.000126149
-0.00270702
9.68686e-05
-0.0026748
7.81132e-05
-0.00263243
6.69153e-05
-0.00258518
5.84782e-05
-0.00253989
4.63049e-05
-0.00250675
2.71073e-05
-0.00249366
3.68513e-06
-0.00249787
-2.80025e-05
-0.00251629
-5.7667e-05
-0.00254846
-7.78481e-05
-0.0025927
-8.91486e-05
-0.00264718
-9.21031e-05
-0.00271011
-8.70145e-05
-0.00277863
-7.33599e-05
-0.00284755
-4.92314e-05
-0.00290962
-1.04422e-05
-0.00295316
4.27873e-05
-0.00294554
0.000116449
-0.00285806
0.000241131
-0.00265304
0.000432724
-0.00229919
0.000719486
-0.00180242
0.00112599
-0.00115583
0.00153163
-0.000111879
0.00146649
0.00130501
0.00073937
0.00164738
-0.000624937
-0.00301446
-0.0134016
-0.0172759
-0.00922173
-0.0056288
-0.00377515
-0.00315398
-0.00319368
-0.00347616
-0.00363969
-0.0036116
-0.00348732
-0.00332239
-0.00317874
-0.0030643
-0.00296858
-0.00288402
-0.00280778
-0.0027435
-0.00269811
-0.00267578
-0.00268483
-0.00272328
-0.00278173
-0.00285138
-0.00292395
-0.0029915
-0.00304553
-0.00307566
-0.00306732
-0.00300618
-0.00287189
-0.00261348
-0.00216412
-0.00142868
-0.00028746
0.00125843
0.00273866
0.0034918
0.00288127
)
;

boundaryField
{
    floor
    {
        type            calculated;
        value           nonuniform List<scalar> 
36
(
0
0
0
0
0
0
0
0
0
0
0
0
0
0
0
0
0
0
0
-5.85135e-06
-1.50735e-05
-2.2656e-05
-2.90268e-05
-2.57125e-05
-2.41247e-05
-2.2801e-05
-3.06021e-06
-5.1121e-06
-5.70127e-06
-6.47441e-06
-4.48115e-06
-9.78872e-06
-1.35717e-05
-1.4954e-05
-1.79177e-05
-1.64666e-05
)
;
    }
    ceiling
    {
        type            calculated;
        value           nonuniform List<scalar> 
43
(
-5.417e-05
-5.32678e-05
-5.24287e-05
-3.6091e-05
-3.02963e-05
-2.57464e-05
-2.21502e-05
-1.99392e-05
-1.85301e-05
-1.78146e-05
-1.74888e-05
-1.74392e-05
-1.75192e-05
-1.75874e-05
-1.76226e-05
-1.76692e-05
-1.77791e-05
-1.79903e-05
-1.83026e-05
-1.86617e-05
-1.89771e-05
-1.92327e-05
-1.9415e-05
-1.95193e-05
-1.95442e-05
-1.94876e-05
-1.93464e-05
-1.91174e-05
-1.87956e-05
-1.83689e-05
-1.78641e-05
-1.72888e-05
-1.66556e-05
-1.59727e-05
-1.52464e-05
-1.42734e-05
-1.37605e-05
-1.37817e-05
-1.44238e-05
-1.45356e-05
1.96268e-06
-1.69957e-07
-6.46265e-05
)
;
    }
    sWall
    {
        type            calculated;
        value           uniform -0.00024999;
    }
    nWall
    {
        type            calculated;
        value           nonuniform List<scalar> 6(-6.03148e-05 -7.25507e-05 -7.5645e-05 -9.21281e-05 -0.000101326 -0.000118677);
    }
    sideWalls
    {
        type            empty;
        value           nonuniform 0();
    }
    glass1
    {
        type            calculated;
        value           nonuniform List<scalar> 9(-6.38198e-05 -0.000172671 -0.000265061 -0.000344321 -0.000412095 -0.000469395 -0.000519659 -0.0005794 -0.000645853);
    }
    glass2
    {
        type            calculated;
        value           nonuniform List<scalar> 2(-0.000322757 -0.000357649);
    }
    sun
    {
        type            calculated;
        value           uniform 0;
    }
    Table_master
    {
        type            calculated;
        value           nonuniform List<scalar> 9(-1.5437e-07 -1.54539e-07 -1.54592e-07 -1.54623e-07 -1.54643e-07 -1.54655e-07 -1.54656e-07 -1.54646e-07 -1.54609e-07);
    }
    Table_slave
    {
        type            calculated;
        value           nonuniform List<scalar> 9(1.54218e-07 1.54197e-07 1.54142e-07 1.54101e-07 1.54081e-07 1.54079e-07 1.54092e-07 1.54141e-07 1.54238e-07);
    }
    inlet
    {
        type            calculated;
        value           uniform -0.0115547;
    }
    outlet
    {
        type            calculated;
        value           nonuniform List<scalar> 2(0.0137057 0.00392754);
    }
}


// ************************************************************************* //
