/*--------------------------------*- C++ -*----------------------------------*=========                 |
  \      /  F ield         | OpenFOAM: The Open Source CFD Toolbox
   \    /   O peration     | Website:  https://openfoam.org
    \  /    A nd           | Version:  6
     \/     M anipulation  |
\*---------------------------------------------------------------------------*/
FoamFile
{
    version     2.0;
    format      ascii;
    class       volScalarField;
    location    "360";
    object      PMV;
}
// * * * * * * * * * * * * * * * * * * * * * * * * * * * * * * * * * * * * * //

dimensions      [0 0 0 0 0 0 0];

internalField   nonuniform List<scalar> 
458
(
1.3254568843300496
1.079597748763152
1.0455927459448129
1.0168204245337056
0.9992550751391858
0.9913072373240523
0.9949992471414552
1.0108187782502374
1.0417028643833133
1.0924286090719284
1.166652421264266
1.2290559845127624
1.2443368374080777
1.2529319824080434
1.264391785565627
1.3899379782564583
1.376097941895213
1.3722798344661926
1.3794387274329403
1.3851656599395898
1.3894607516018584
1.383826327034668
1.3802180801518986
1.3814408151769437
1.3836205920691944
1.3868922662475112
1.3904461107662505
1.3955650414073746
1.4023088101090448
1.4138761753750244
1.4266808482320366
1.4319292309242504
1.4467192832045648
1.2578850458742348
1.092309409665725
1.0794851292510599
1.0518506303868413
1.0349656459662486
1.0272411675291746
1.029443091864651
1.0380353440033943
1.0531558781064339
1.078822416923538
1.1205962941486416
1.1845213112853006
1.2429042894374238
1.2529319824080434
1.246112518993752
1.2084983977199093
1.2143162528344629
1.240747866185419
1.3480754773816161
1.3613023850309847
1.3613023850309847
1.3703707542423
1.372335415468162
1.3726699586948974
1.3736453403118685
1.3756449662238177
1.3767867885043699
1.3779772874870213
1.3793404876826236
1.3810629319497143
1.3831016748778309
1.3866724209097756
1.3961567188465338
1.4071173567444881
1.4147521373905894
1.40179668618147
1.2883280793056855
1.0845649126183254
1.1137725524292164
1.0995333847250204
1.093307173010806
1.0903231587112063
1.0905643154308031
1.0856422248919142
1.0696837795117806
1.0577091918867676
1.0715540656451652
1.1258952935979842
1.221539739997895
1.2605719016237333
1.266301708341049
1.262858963731048
1.2594415185502053
1.2487844287240593
1.255485304692758
1.3135982740940444
1.321822466307157
1.332191720963322
1.344681184573643
1.3497341771472422
1.3734909985828259
1.3904152037553164
1.3913696512798883
1.392324094163949
1.3932785323958565
1.3942329659639712
1.3956646075459709
1.3970962385687615
1.400913869372881
1.4047314240569253
1.3990552735562605
1.32963954097855
1.3612097694320706
1.0788712102661204
1.1383053290208787
1.1512852205776438
1.1702766464262915
1.1823568275826544
1.1839897899115739
1.1534632460627772
1.0910871898186276
1.0370342831423027
1.0308498490602116
1.0852987802406253
1.1802712342586927
1.2690321719410422
1.2811031661876646
1.2825355228093285
1.2447873443014712
1.2205767753748862
1.1758564154820992
1.2402703215981368
1.2788277929132403
1.3085861251741318
1.3424606199388862
1.3804278935738026
1.4095694736256588
1.406314543751044
1.4031479067198531
1.404527139164452
1.4077344114720645
1.4127463262117608
1.4215367891633637
1.4362234845224402
1.4609777046201224
1.4574210041322582
1.439085865081507
1.3816286896359296
1.2861901327812137
1.4551348999483034
1.088108664802669
1.156651172201161
1.1972243230330164
1.2558856516283452
1.3044085114248556
1.3081198742623719
1.2219757583333655
1.1058387745736964
1.0184831578674876
1.0011930093380685
1.059228001634036
1.1582693900533674
1.260372837414105
1.303065110634052
1.3040199352559416
1.2812604601999182
1.253149234210428
1.2540936822729776
1.2728359604764279
1.3072584770528928
1.3513844995329762
1.3972223983577596
1.4415353792987422
1.475818499932323
1.4881612367204846
1.4918316842804344
1.494158844293574
1.4950283248765726
1.493940949269646
1.4931280125216726
1.4932815274967122
1.4924723265853992
1.4752452010277823
1.4455028752513357
1.368374605398231
1.3656304278715263
1.3704311010693824
1.4560063292348129
1.3355527154219748
1.5520288504547881
1.1185301137332129
1.1888512791258994
1.2305050004928149
1.3200468642557541
1.3918468733027376
1.3990140490405438
1.2422178282532736
1.0990791406162124
0.9989273863602928
0.9805227558360038
1.044704734698701
1.1581261149138198
1.2780205891039182
1.3340949973982643
1.338391121399441
1.3355270477055359
1.3369590890514937
1.3427417474018921
1.3667542722760835
1.404665147393184
1.4452880431405042
1.4762954928903738
1.5015740285242243
1.5216030546843697
1.5354309896479121
1.5444899252732895
1.5506877967320698
1.55307151724998
1.5525947765531514
1.5483040337638598
1.5411524923794087
1.5266536794194485
1.4949870308667261
1.455390007829646
1.3824214043571026
1.3738896312352262
1.369177962990312
1.3945026018001931
1.4032387716682635
1.6447413702803284
1.2061754334530947
1.3101184978268345
1.2921649834224733
1.3514739154182278
1.4270636818428366
1.3391721356621031
1.2092187803312475
1.0645055803634973
0.9673184974380779
0.9617084490950474
1.048835588790396
1.1876075292559078
1.3340311651367927
1.3775297138384992
1.3865973674840748
1.386120132779637
1.392324094163949
1.4123663020421247
1.4414713445638574
1.4729565121804051
1.5030047636568336
1.528755604580999
1.5492575440309364
1.563559377543195
1.5726163954625432
1.5773829895075249
1.579766219155749
1.5792895768366582
1.5759530301071396
1.5692796735345307
1.5597457069605234
1.5483040337638598
1.5318753152858637
1.4859785259295382
1.4218717905588187
1.3910086697196122
1.370037714303241
1.3428007077231985
1.4476727942823762
1.7853124236590163
1.5765575985233131
1.5198162476796897
1.4063873719399524
1.3853036837844237
1.3693461897335397
1.2832673717242282
1.126939916947944
0.977561221951146
0.9083312139425365
0.9490111422000882
1.0862112110086604
1.2678632823095595
1.3956646075459709
1.432883465653516
1.4433797044424859
1.4476734365765696
1.4586458125950637
1.480588364831025
1.5077737813729148
1.534000576912735
1.556885381224201
1.574523054559109
1.5869142355630332
1.5945398295437176
1.5978758770675143
1.5988290166082721
1.5978758770675143
1.5950164133777458
1.5902504912464988
1.5840545161698483
1.5749997148662234
1.5640360785254084
1.5511645442388422
1.535907790612255
1.519695647336123
1.5101114289869912
1.482329404878706
1.404990917911201
1.318608968377814
1.9942739623824681
1.8482073379259862
1.6888446086053606
1.5486249809088064
1.4576523961706151
1.3781646703938701
1.1517774288607483
0.9229821885883471
0.8067790001259664
0.8324043033110329
0.9795718969361483
1.2062761263601796
1.3932785323958565
1.465801319632534
1.4925123901568202
1.5034816723195148
1.5125426448885206
1.5263714614231838
1.5454434624808837
1.5659428649519966
1.5835778898701576
1.5973993044757027
1.6017780397927104
1.5988003116306604
1.5941377774307963
1.5880075146516082
1.5805346177141397
1.5721540235691807
1.5620280542110325
1.5500890812410857
1.5368512464535575
1.5214360263880935
1.506877651627054
1.4898808565628514
1.4695748168097604
1.4516842403891452
1.4402043622390504
1.4358218270797747
1.4256733233148386
1.39539807887325
-1.7001334215156874
-0.8256553102640917
-0.2995789739662549
-0.1263310099055686
0.050258910653680156
0.2811806470689575
0.5737500654746448
0.886773653404616
1.1999248750462317
1.4075945396622291
1.4841446601321904
1.4982069289729822
1.5079812225068658
1.5179629297525787
1.530501705219354
1.545439351387232
1.559717652434477
1.5705528731864495
1.5762087113654981
1.577386744865432
1.5753369033607052
1.5706771559333117
1.5647084694578657
1.5572099552137355
1.5490651556414987
1.540456234808639
1.5317891051107353
1.5246268485606436
1.518470423991382
1.5139469563235464
1.5108130537033377
1.5081151287162622
1.5059422068766393
1.5060173712447635
1.5162868985336106
1.553152730384364
1.6230991960451002
1.4724051369879714
-1.7085540290284875
-0.6356586113425508
-0.04753561362771175
0.26619301556416264
0.5153786541863158
0.8072360181385921
1.1258931060289405
1.3350496985969968
1.4044596233091062
1.4543608172460551
1.4830274333598255
1.4995461759191022
1.5111654320922836
1.5212393017380164
1.5307975951041277
1.539627606241639
1.5474373610700398
1.5527237828548934
1.5556126848363463
1.5567289137899107
1.5558275429562165
1.5534472453411734
1.5506601330711793
1.5470935316359986
1.543867114166999
1.5406569520324234
1.5376770635307977
1.536383780236138
1.535741495206265
1.5380677310794835
1.5444252975475328
1.5549541384209515
1.5665313964392606
1.576377845856181
1.5872356251381963
1.622586600817134
1.569412129513267
1.5141449023474702
-1.1225077892036
-1.1237181049827596
-0.9994403854277206
-0.1802817203891427
0.425423159552818
0.8627529203397297
1.154258777560888
1.2919506147129423
1.377617452428336
1.4287193284963486
1.4624010371054814
1.485601170345651
1.5007975036930237
1.5097852163567187
1.5165093473349613
1.5210605576050646
1.5237233710184548
1.5247297105695863
1.5232006735411043
1.520424357860542
1.5168642714042706
1.5138396293228107
1.5103698858797159
1.5075568975259297
1.5054730934887735
1.5042430534893814
1.5035703128688518
1.5048167527391574
1.5079703542728968
1.513742820565718
1.5221609623530898
1.535513506229125
1.5583760061906653
1.5981161939470259
1.6493342425672337
1.6545740447436068
1.625769409839328
1.5698872514612066
1.5211387048901888
1.5342359462976989
)
;

boundaryField
{
    ".*"
    {
        type            zeroGradient;
    }
}


// ************************************************************************* //
