/*--------------------------------*- C++ -*----------------------------------*\
  =========                 |
  \\      /  F ield         | OpenFOAM: The Open Source CFD Toolbox
   \\    /   O peration     | Website:  https://openfoam.org
    \\  /    A nd           | Version:  6
     \\/     M anipulation  |
\*---------------------------------------------------------------------------*/
FoamFile
{
    version     2.0;
    format      ascii;
    class       volVectorField;
    location    "4120";
    object      U;
}
// * * * * * * * * * * * * * * * * * * * * * * * * * * * * * * * * * * * * * //

dimensions      [0 1 -1 0 0 0 0];

internalField   nonuniform List<vector> 
458
(
(0.0348258 0.0885225 0)
(-0.172081 0.0265843 0)
(-0.199348 0.0191131 0)
(-0.233223 0.0130811 0)
(-0.258395 0.00641372 0)
(-0.273599 -0.000804913 0)
(-0.276728 -0.00877825 0)
(-0.265481 -0.0177782 0)
(-0.239423 -0.0274271 0)
(-0.199711 -0.0361119 0)
(-0.150446 -0.0420516 0)
(-0.0978289 -0.0436515 0)
(-0.0487289 -0.0390815 0)
(-0.00627071 -0.0236845 0)
(-0.0102624 0.00977155 0)
(-0.0102379 0.0105129 0)
(-0.03726 -0.0174871 0)
(-0.0145105 -0.0291035 0)
(0.0136696 -0.0251833 0)
(0.0334406 -0.0178893 0)
(0.0480571 -0.00955482 0)
(0.0568164 -0.00517624 0)
(0.060695 -0.00363241 0)
(0.0621305 -0.00308272 0)
(0.0627798 -0.00275987 0)
(0.0630897 -0.00250942 0)
(0.0630289 -0.00224146 0)
(0.0624311 -0.00179742 0)
(0.0608397 -0.000838824 0)
(0.0572379 0.00107448 0)
(0.0505187 0.00317058 0)
(0.0451142 0.00508636 0)
(-0.0141472 0.021948 0)
(0.214272 0.181889 0)
(-0.162147 0.0709928 0)
(-0.162941 0.0577623 0)
(-0.198656 0.0457433 0)
(-0.224133 0.0319883 0)
(-0.240109 0.0161756 0)
(-0.244611 -0.00240999 0)
(-0.235116 -0.0239667 0)
(-0.211867 -0.0461699 0)
(-0.176485 -0.0649269 0)
(-0.133355 -0.076427 0)
(-0.0881261 -0.0781991 0)
(-0.0462596 -0.06873 0)
(-0.0100266 -0.0460167 0)
(0.0194095 -0.0133805 0)
(0.0442419 0.00784916 0)
(0.054847 0.0347579 0)
(-0.0118095 0.0706829 0)
(0.0670403 0.0439815 0)
(0.0102881 -0.0218338 0)
(0.0265182 -0.0378984 0)
(0.0407464 -0.035645 0)
(0.0531355 -0.0273416 0)
(0.0595577 -0.0120936 0)
(0.0611778 -0.0027535 0)
(0.0612276 0.000745528 0)
(0.0613923 0.00202311 0)
(0.0617175 0.00272178 0)
(0.0619425 0.00322161 0)
(0.062 0.0036749 0)
(0.061896 0.00440713 0)
(0.0611849 0.00620496 0)
(0.0577883 0.0112233 0)
(0.0490976 0.0155323 0)
(0.0476926 0.0187038 0)
(-0.058428 0.0475495 0)
(0.379536 0.272955 0)
(-0.180118 0.113733 0)
(-0.123512 0.0941089 0)
(-0.159197 0.0724343 0)
(-0.182599 0.0495028 0)
(-0.19841 0.0236426 0)
(-0.204062 -0.00653497 0)
(-0.195373 -0.0409797 0)
(-0.17359 -0.075781 0)
(-0.141424 -0.103649 0)
(-0.10384 -0.118953 0)
(-0.0658949 -0.119156 0)
(-0.0318229 -0.104119 0)
(-0.00227709 -0.0743974 0)
(0.0220304 -0.0400729 0)
(0.0375967 -0.0152195 0)
(0.0431784 0.0131632 0)
(-0.0236621 0.0623191 0)
(0.12249 -0.00753246 0)
(0.0725097 -0.0320908 0)
(0.0643117 -0.0419287 0)
(0.0672603 -0.0417566 0)
(0.0718705 -0.0380439 0)
(0.073489 -0.028228 0)
(0.0643658 -0.0183289 0)
(0.0574114 -0.0130269 0)
(0.0548129 -0.0100784 0)
(0.0541216 -0.0081859 0)
(0.0538876 -0.00689734 0)
(0.0539579 -0.00590241 0)
(0.0547573 -0.00475335 0)
(0.0572082 -0.0013987 0)
(0.0561027 0.0149937 0)
(0.0445869 0.0258689 0)
(0.0541325 0.0332462 0)
(-0.0993781 0.0727935 0)
(0.530026 0.346652 0)
(-0.216668 0.151756 0)
(-0.0801994 0.125836 0)
(-0.115538 0.0962967 0)
(-0.133417 0.067224 0)
(-0.146929 0.0337631 0)
(-0.152515 -0.00711145 0)
(-0.14262 -0.0550542 0)
(-0.121287 -0.102309 0)
(-0.0929782 -0.13784 0)
(-0.0625314 -0.155425 0)
(-0.0335722 -0.153427 0)
(-0.00879793 -0.133437 0)
(0.0128649 -0.0979227 0)
(0.0304324 -0.0589722 0)
(0.0443565 -0.0228968 0)
(0.0599546 0.0131489 0)
(0.0588222 0.0534399 0)
(0.100333 0.0615058 0)
(0.0988157 -0.00244097 0)
(0.0851508 -0.0293884 0)
(0.0784671 -0.03769 0)
(0.0736157 -0.0383938 0)
(0.06702 -0.0341075 0)
(0.0666008 -0.0208385 0)
(0.0772767 -0.0138301 0)
(0.0862399 -0.0101071 0)
(0.091639 -0.00782431 0)
(0.0948787 -0.00591659 0)
(0.0962851 -0.0038555 0)
(0.094517 -0.00119012 0)
(0.088255 0.00248031 0)
(0.0757128 0.00774305 0)
(0.0597989 0.0250978 0)
(0.0440616 0.040583 0)
(0.062978 0.0533442 0)
(-0.131389 0.0942776 0)
(0.662681 0.403809 0)
(-0.262352 0.182677 0)
(-0.0350339 0.145257 0)
(-0.0687491 0.111319 0)
(-0.0779459 0.0792332 0)
(-0.0862936 0.0412497 0)
(-0.0890488 -0.00798778 0)
(-0.0740287 -0.0688146 0)
(-0.0534826 -0.125901 0)
(-0.0315791 -0.165073 0)
(-0.0112753 -0.181842 0)
(0.00616118 -0.17599 0)
(0.0193252 -0.151482 0)
(0.0303431 -0.114538 0)
(0.0401933 -0.0729573 0)
(0.0494376 -0.0337225 0)
(0.0619361 0.000674981 0)
(0.0760381 0.0197163 0)
(0.090327 -0.00056737 0)
(0.0896842 -0.0213725 0)
(0.0826175 -0.0300335 0)
(0.0738109 -0.0325491 0)
(0.0655661 -0.031629 0)
(0.0586219 -0.0266318 0)
(0.0568407 -0.0155118 0)
(0.0603942 -0.00902663 0)
(0.0647357 -0.00637205 0)
(0.068459 -0.00482977 0)
(0.0717017 -0.0027496 0)
(0.0742085 0.000781107 0)
(0.0750581 0.00596811 0)
(0.0731641 0.0129864 0)
(0.0682549 0.0224378 0)
(0.0612079 0.0371776 0)
(0.0500559 0.0536291 0)
(0.0748591 0.072748 0)
(-0.00684654 0.101381 0)
(0.0557879 0.150674 0)
(-0.0835198 0.0748403 0)
(-0.277797 0.000487862 0)
(0.761894 0.451323 0)
(-0.308549 0.203338 0)
(0.00242979 0.143886 0)
(-0.0205842 0.116259 0)
(-0.01979 0.0857221 0)
(-0.0214998 0.0472952 0)
(-0.0143136 -0.00693769 0)
(0.0103154 -0.0859253 0)
(0.0269243 -0.146192 0)
(0.0388262 -0.182423 0)
(0.0460461 -0.194553 0)
(0.0488942 -0.18505 0)
(0.0486295 -0.158119 0)
(0.0472248 -0.119917 0)
(0.0460512 -0.0779384 0)
(0.0464681 -0.0397067 0)
(0.0508202 -0.00999091 0)
(0.0599685 0.00482433 0)
(0.0662449 -0.00105176 0)
(0.0649917 -0.0110138 0)
(0.0586063 -0.0188061 0)
(0.0504355 -0.0229108 0)
(0.0427976 -0.0236607 0)
(0.0368217 -0.0211347 0)
(0.0342704 -0.0157707 0)
(0.0354198 -0.0122942 0)
(0.0383736 -0.0108629 0)
(0.0420298 -0.00977506 0)
(0.0460898 -0.00763903 0)
(0.0502723 -0.0033848 0)
(0.0544829 0.00368359 0)
(0.057 0.0131865 0)
(0.0581663 0.0249441 0)
(0.0592912 0.0395782 0)
(0.0583675 0.0559998 0)
(0.079709 0.0766954 0)
(0.0654483 0.0889842 0)
(0.0997222 0.0967316 0)
(0.117478 0.0571989 0)
(-0.136895 -0.0299281 0)
(0.815611 0.494187 0)
(-0.334124 0.18737 0)
(0.0322409 0.0938 0)
(0.0390621 0.101055 0)
(0.0459311 0.0830004 0)
(0.0516236 0.0393705 0)
(0.079098 -0.0311717 0)
(0.10311 -0.103704 0)
(0.113286 -0.157016 0)
(0.112861 -0.186331 0)
(0.104581 -0.192431 0)
(0.0907895 -0.178775 0)
(0.0740941 -0.149768 0)
(0.0575008 -0.111562 0)
(0.0429714 -0.0709092 0)
(0.0326166 -0.0356954 0)
(0.0281006 -0.0107566 0)
(0.0295007 0.000991158 0)
(0.0311363 -0.00028043 0)
(0.029635 -0.00656893 0)
(0.0249833 -0.0126303 0)
(0.0188641 -0.0163692 0)
(0.0128388 -0.0177425 0)
(0.00803248 -0.0171046 0)
(0.00567135 -0.0151957 0)
(0.00601343 -0.0141013 0)
(0.00805251 -0.0139681 0)
(0.0110508 -0.0137423 0)
(0.014846 -0.0123615 0)
(0.019524 -0.0087399 0)
(0.0256928 -0.0016357 0)
(0.0333026 0.00886888 0)
(0.0400693 0.0208902 0)
(0.0478781 0.0341599 0)
(0.0558775 0.0479595 0)
(0.075452 0.0644567 0)
(0.0882331 0.0697707 0)
(0.11967 0.0632095 0)
(0.163391 0.0513056 0)
(-0.0203526 0.095488 0)
(0.921864 0.497286 0)
(-0.0766787 0.167419 0)
(0.110608 0.0261618 0)
(0.163737 0.0227929 0)
(0.161399 0.0155473 0)
(0.162865 -0.0293625 0)
(0.196488 -0.0804099 0)
(0.211271 -0.125543 0)
(0.205359 -0.158277 0)
(0.18509 -0.173982 0)
(0.155584 -0.171673 0)
(0.121085 -0.153972 0)
(0.0852895 -0.124273 0)
(0.0523633 -0.0880736 0)
(0.0244583 -0.0510591 0)
(0.00511414 -0.021929 0)
(-0.00463204 -0.00442842 0)
(-0.00655895 0.0017583 0)
(-0.00644003 0.000663128 0)
(-0.00764068 -0.00366324 0)
(-0.0109406 -0.00801329 0)
(-0.0154386 -0.0110773 0)
(-0.0200732 -0.0128477 0)
(-0.0239376 -0.0136843 0)
(-0.0263198 -0.0141355 0)
(-0.0272116 -0.0148866 0)
(-0.0271756 -0.0158707 0)
(-0.026594 -0.0165844 0)
(-0.0254667 -0.0164988 0)
(-0.0234874 -0.0150363 0)
(-0.0198622 -0.0114656 0)
(-0.0117095 -0.00490977 0)
(-9.40767e-05 0.00445891 0)
(0.0110861 0.0137603 0)
(0.0226895 0.0208654 0)
(0.0398995 0.0277364 0)
(0.05543 0.0224378 0)
(0.0795689 0.00564844 0)
(0.146409 0.0479778 0)
(-0.428338 0.212666 0)
(1.06591 0.444164 0)
(0.518237 0.2983 0)
(0.529532 0.249857 0)
(0.51839 0.182905 0)
(0.469836 0.122439 0)
(0.433156 0.0601131 0)
(0.392045 -0.00742347 0)
(0.34284 -0.0669798 0)
(0.289082 -0.107862 0)
(0.232743 -0.126611 0)
(0.175362 -0.125099 0)
(0.118903 -0.108911 0)
(0.0654559 -0.0822847 0)
(0.0202357 -0.0512622 0)
(-0.0161019 -0.0208451 0)
(-0.0329471 -0.0060723 0)
(-0.040125 0.000441883 0)
(-0.0416815 0.00220719 0)
(-0.04206 0.00100814 0)
(-0.043202 -0.00163953 0)
(-0.04583 -0.00451722 0)
(-0.049479 -0.00704499 0)
(-0.0535044 -0.00913502 0)
(-0.0573692 -0.0108637 0)
(-0.0608168 -0.0123656 0)
(-0.0640101 -0.0137472 0)
(-0.0673526 -0.0148457 0)
(-0.0712203 -0.0153021 0)
(-0.0759668 -0.0146317 0)
(-0.0820652 -0.0121816 0)
(-0.0902076 -0.00711465 0)
(-0.101118 0.00142818 0)
(-0.112753 0.0133219 0)
(-0.127984 0.0284139 0)
(-0.152908 0.0467844 0)
(-0.190233 0.0673932 0)
(-0.241634 0.0862252 0)
(-0.297563 0.0999185 0)
(-0.371647 0.106912 0)
(-0.65067 0.106305 0)
(0.233924 0.0528316 0)
(0.305889 0.115962 0)
(0.321217 0.0913671 0)
(0.299642 0.0395774 0)
(0.275045 -0.010603 0)
(0.244385 -0.0469397 0)
(0.203096 -0.0684128 0)
(0.154002 -0.0754151 0)
(0.100436 -0.068699 0)
(0.0461636 -0.0529168 0)
(-0.00863029 -0.0295143 0)
(-0.045134 -0.0114976 0)
(-0.0635922 -0.00313969 0)
(-0.070923 -0.000758037 0)
(-0.0731585 -0.000284045 0)
(-0.0734766 -0.000982525 0)
(-0.0737785 -0.0025838 0)
(-0.074917 -0.00467926 0)
(-0.0771321 -0.00676803 0)
(-0.0803877 -0.00854778 0)
(-0.0841837 -0.0100193 0)
(-0.0882906 -0.011141 0)
(-0.09272 -0.0119155 0)
(-0.0976251 -0.0123095 0)
(-0.103157 -0.0121329 0)
(-0.109347 -0.0110406 0)
(-0.116066 -0.00856345 0)
(-0.122967 -0.00415741 0)
(-0.129429 0.00273863 0)
(-0.134402 0.0123364 0)
(-0.13837 0.0256173 0)
(-0.141807 0.043179 0)
(-0.146018 0.0642221 0)
(-0.151773 0.0850511 0)
(-0.155359 0.0955471 0)
(-0.141304 0.073401 0)
(-0.110248 -0.0250094 0)
(-0.286613 -0.213742 0)
(0.120027 0.324335 0)
(0.00839049 0.203592 0)
(0.0392643 0.118449 0)
(0.0584775 0.0604343 0)
(0.0631254 0.0216238 0)
(0.0601115 -0.00478672 0)
(0.0401969 -0.0199141 0)
(0.00541779 -0.018954 0)
(-0.0365978 -0.00171808 0)
(-0.0701166 0.0128788 0)
(-0.091229 0.020882 0)
(-0.100243 0.0232657 0)
(-0.102467 0.0233936 0)
(-0.102413 0.0234463 0)
(-0.10154 0.0241604 0)
(-0.100508 0.0252871 0)
(-0.0997861 0.0264284 0)
(-0.0996587 0.0271783 0)
(-0.100184 0.0271129 0)
(-0.101325 0.0259073 0)
(-0.103119 0.0238735 0)
(-0.105495 0.0216292 0)
(-0.108387 0.0194497 0)
(-0.111705 0.0174804 0)
(-0.115313 0.0158316 0)
(-0.118996 0.0146125 0)
(-0.122445 0.0139596 0)
(-0.125176 0.0140303 0)
(-0.126372 0.0155213 0)
(-0.124865 0.0198896 0)
(-0.119076 0.028296 0)
(-0.107619 0.0417406 0)
(-0.090352 0.0602413 0)
(-0.0683173 0.0804254 0)
(-0.0434463 0.0948377 0)
(-0.00758448 0.085778 0)
(0.146941 0.00930557 0)
(-0.209931 -0.129684 0)
(-0.422117 -0.51603 0)
(-0.637319 -0.143275 0)
(-0.449399 0.177759 0)
(-0.357934 0.0560787 0)
(-0.213899 -0.00554009 0)
(-0.145611 -0.0477889 0)
(-0.117167 -0.0705383 0)
(-0.112987 -0.0713628 0)
(-0.122346 -0.0626885 0)
(-0.134863 -0.0549772 0)
(-0.140347 -0.0505065 0)
(-0.138588 -0.049067 0)
(-0.134127 -0.0499528 0)
(-0.128945 -0.0527759 0)
(-0.124483 -0.0563042 0)
(-0.121039 -0.0599476 0)
(-0.118239 -0.0635895 0)
(-0.115826 -0.0672862 0)
(-0.113758 -0.0708876 0)
(-0.112107 -0.0739041 0)
(-0.111008 -0.075684 0)
(-0.110622 -0.0757908 0)
(-0.111051 -0.0743578 0)
(-0.112258 -0.0719862 0)
(-0.114069 -0.0689141 0)
(-0.11626 -0.0652744 0)
(-0.118548 -0.0610868 0)
(-0.120565 -0.0562775 0)
(-0.121831 -0.050631 0)
(-0.12171 -0.0438011 0)
(-0.119186 -0.0358143 0)
(-0.112353 -0.0266898 0)
(-0.0984058 -0.0158832 0)
(-0.0748444 -0.00248643 0)
(-0.0415507 0.0143644 0)
(0.00931645 0.0362845 0)
(0.0618661 0.0423472 0)
(0.109598 0.0240445 0)
(0.172057 -0.0159428 0)
(-0.196289 -0.0826848 0)
)
;

boundaryField
{
    floor
    {
        type            noSlip;
    }
    ceiling
    {
        type            noSlip;
    }
    sWall
    {
        type            noSlip;
    }
    nWall
    {
        type            noSlip;
    }
    sideWalls
    {
        type            empty;
    }
    glass1
    {
        type            noSlip;
    }
    glass2
    {
        type            noSlip;
    }
    sun
    {
        type            noSlip;
    }
    Table_master
    {
        type            noSlip;
    }
    Table_slave
    {
        type            noSlip;
    }
    inlet
    {
        type            fixedValue;
        value           uniform (0.46194 -0.191342 0);
    }
    outlet
    {
        type            zeroGradient;
    }
}


// ************************************************************************* //
